 Entering Gaussian System, Link 0=/export/g16/g16
 Input=Q-AR.com
 Output=Q-AR.log
 AtFile(1): Q-AR.xyz
            C         -1.26963        1.45905        0.00000
            C         -1.36788        0.08568        0.00000
            C         -0.01590        2.14545        0.00000
            C          1.23503        1.33038        0.00000
            C          1.10495       -0.11947        0.00000
            C         -0.15837       -0.67500        0.00000
            H         -0.24603       -1.74796        0.00000
            H         -2.15422        2.08556       -0.00000
            O          0.04856        3.41187        0.00000
            O          2.35147        1.92213       -0.00000
            C          2.36722       -0.99991        0.00000
            C          3.21108       -0.71671       -1.26231
            H          2.64531       -0.96140       -2.16584
            H          4.11451       -1.33423       -1.25713
            H          3.50533        0.32937       -1.31193
            C          3.21108       -0.71671        1.26231
            H          4.11452       -1.33422        1.25713
            H          2.64531       -0.96139        2.16584
            H          3.50533        0.32938        1.31192
            C          2.03985       -2.50337        0.00000
            H          2.97273       -3.07246        0.00000
            H          1.47348       -2.80228       -0.88531
            H          1.47348       -2.80228        0.88531
            C         -2.75110       -0.59097        0.00000
            C         -2.66848       -2.12656        0.00000
            H         -2.15513       -2.50925       -0.88502
            H         -3.67825       -2.54358       -0.00000
            H         -2.15514       -2.50925        0.88503
            C         -3.53766       -0.16064        1.25663
            H         -4.52466       -0.63165        1.26639
            H         -3.68203        0.92025        1.29161
            H         -3.01161       -0.45934        2.16685
            C         -3.53766       -0.16064       -1.25663
            H         -4.52465       -0.63165       -1.26640
            H         -3.01160       -0.45934       -2.16686
            H         -3.68202        0.92025       -1.29162
 Initial command:
 /export/g16/l1.exe "/tmp/talipovm/21603/Gau-2401152.inp" -scrdir="/tmp/talipovm/21603/"
 Entering Link 1 = /export/g16/l1.exe PID=   2401154.
  
 Copyright (c) 1988,1990,1992,1993,1995,1998,2003,2009,2016,
            Gaussian, Inc.  All Rights Reserved.
  
 This is part of the Gaussian(R) 16 program.  It is based on
 the Gaussian(R) 09 system (copyright 2009, Gaussian, Inc.),
 the Gaussian(R) 03 system (copyright 2003, Gaussian, Inc.),
 the Gaussian(R) 98 system (copyright 1998, Gaussian, Inc.),
 the Gaussian(R) 94 system (copyright 1995, Gaussian, Inc.),
 the Gaussian 92(TM) system (copyright 1992, Gaussian, Inc.),
 the Gaussian 90(TM) system (copyright 1990, Gaussian, Inc.),
 the Gaussian 88(TM) system (copyright 1988, Gaussian, Inc.),
 the Gaussian 86(TM) system (copyright 1986, Carnegie Mellon
 University), and the Gaussian 82(TM) system (copyright 1983,
 Carnegie Mellon University). Gaussian is a federally registered
 trademark of Gaussian, Inc.
  
 This software contains proprietary and confidential information,
 including trade secrets, belonging to Gaussian, Inc.
  
 This software is provided under written license and may be
 used, copied, transmitted, or stored only in accord with that
 written license.
  
 The following legend is applicable only to US Government
 contracts under FAR:
  
                    RESTRICTED RIGHTS LEGEND
  
 Use, reproduction and disclosure by the US Government is
 subject to restrictions as set forth in subparagraphs (a)
 and (c) of the Commercial Computer Software - Restricted
 Rights clause in FAR 52.227-19.
  
 Gaussian, Inc.
 340 Quinnipiac St., Bldg. 40, Wallingford CT 06492
  
  
 ---------------------------------------------------------------
 Warning -- This program may not be used in any manner that
 competes with the business of Gaussian, Inc. or will provide
 assistance to any competitor of Gaussian, Inc.  The licensee
 of this program is prohibited from giving any competitor of
 Gaussian, Inc. access to this program.  By using this program,
 the user acknowledges that Gaussian, Inc. is engaged in the
 business of creating and licensing software in the field of
 computational chemistry and represents and warrants to the
 licensee that it is not a competitor of Gaussian, Inc. and that
 it will not use this program in any manner prohibited above.
 ---------------------------------------------------------------
  

 Cite this work as:
 Gaussian 16, Revision A.03,
 M. J. Frisch, G. W. Trucks, H. B. Schlegel, G. E. Scuseria, 
 M. A. Robb, J. R. Cheeseman, G. Scalmani, V. Barone, 
 G. A. Petersson, H. Nakatsuji, X. Li, M. Caricato, A. V. Marenich, 
 J. Bloino, B. G. Janesko, R. Gomperts, B. Mennucci, H. P. Hratchian, 
 J. V. Ortiz, A. F. Izmaylov, J. L. Sonnenberg, D. Williams-Young, 
 F. Ding, F. Lipparini, F. Egidi, J. Goings, B. Peng, A. Petrone, 
 T. Henderson, D. Ranasinghe, V. G. Zakrzewski, J. Gao, N. Rega, 
 G. Zheng, W. Liang, M. Hada, M. Ehara, K. Toyota, R. Fukuda, 
 J. Hasegawa, M. Ishida, T. Nakajima, Y. Honda, O. Kitao, H. Nakai, 
 T. Vreven, K. Throssell, J. A. Montgomery, Jr., J. E. Peralta, 
 F. Ogliaro, M. J. Bearpark, J. J. Heyd, E. N. Brothers, K. N. Kudin, 
 V. N. Staroverov, T. A. Keith, R. Kobayashi, J. Normand, 
 K. Raghavachari, A. P. Rendell, J. C. Burant, S. S. Iyengar, 
 J. Tomasi, M. Cossi, J. M. Millam, M. Klene, C. Adamo, R. Cammi, 
 J. W. Ochterski, R. L. Martin, K. Morokuma, O. Farkas, 
 J. B. Foresman, and D. J. Fox, Gaussian, Inc., Wallingford CT, 2016.
 
 ******************************************
 Gaussian 16:  ES64L-G16RevA.03 25-Dec-2016
                 9-Apr-2025 
 ******************************************
 %nproc=44
 Will use up to   44 processors via shared memory.
 %mem=60Gb
 %chk=Q-AR.chk
 ----------------------------------------------------------------------
 #p M062X/6-31+G(d) opt(tight) int(grid=ultrafine) scf(xqc,fermi,maxcyc
 =200) scrf(smd,solvent=water)
 ----------------------------------------------------------------------
 1/7=10,18=20,19=15,26=6,38=1/1,3;
 2/9=110,12=2,17=6,18=5,40=1/2;
 3/5=1,6=6,7=11,11=2,25=1,30=1,70=32201,71=1,72=1,74=-55,75=-5/1,2,3;
 4//1;
 5/5=2,7=200,8=3,13=1,22=13,38=5,53=1/2,8;
 6/7=2,8=2,9=2,10=2,28=1/1;
 7//1,2,3,16;
 1/7=10,18=20,19=15,26=6/3(2);
 2/9=110/2;
 99//99;
 2/9=110/2;
 3/5=1,6=6,7=11,11=2,25=1,30=1,70=32205,71=1,72=1,74=-55,75=-5/1,2,3;
 4/5=5,16=3,69=1/1;
 5/5=2,7=200,8=3,13=1,22=13,38=5,53=1/2,8;
 7//1,2,3,16;
 1/7=10,18=20,19=15,26=6/3(-5);
 2/9=110/2;
 6/7=2,8=2,9=2,10=2,19=2,28=1/1;
 99/9=1/99;
 Leave Link    1 at Wed Apr  9 18:02:22 2025, MaxMem=  8053063680 cpu:               6.1 elap:               0.2
 (Enter /export/g16/l101.exe)


 Symbolic Z-matrix:
 Charge = -1 Multiplicity = 2
 C                    -1.26963   1.45905   0. 
 C                    -1.36788   0.08568   0. 
 C                    -0.0159    2.14545   0. 
 C                     1.23503   1.33038   0. 
 C                     1.10495  -0.11947   0. 
 C                    -0.15837  -0.675     0. 
 H                    -0.24603  -1.74796   0. 
 H                    -2.15422   2.08556   0. 
 O                     0.04856   3.41187   0. 
 O                     2.35147   1.92213   0. 
 C                     2.36722  -0.99991   0. 
 C                     3.21108  -0.71671  -1.26231 
 H                     2.64531  -0.9614   -2.16584 
 H                     4.11451  -1.33423  -1.25713 
 H                     3.50533   0.32937  -1.31193 
 C                     3.21108  -0.71671   1.26231 
 H                     4.11452  -1.33422   1.25713 
 H                     2.64531  -0.96139   2.16584 
 H                     3.50533   0.32938   1.31192 
 C                     2.03985  -2.50337   0. 
 H                     2.97273  -3.07246   0. 
 H                     1.47348  -2.80228  -0.88531 
 H                     1.47348  -2.80228   0.88531 
 C                    -2.7511   -0.59097   0. 
 C                    -2.66848  -2.12656   0. 
 H                    -2.15513  -2.50925  -0.88502 
 H                    -3.67825  -2.54358   0. 
 H                    -2.15514  -2.50925   0.88503 
 C                    -3.53766  -0.16064   1.25663 
 H                    -4.52466  -0.63165   1.26639 
 H                    -3.68203   0.92025   1.29161 
 H                    -3.01161  -0.45934   2.16685 
 C                    -3.53766  -0.16064  -1.25663 
 H                    -4.52465  -0.63165  -1.2664 
 H                    -3.0116   -0.45934  -2.16686 
 H                    -3.68202   0.92025  -1.29162 
 
 ITRead=  0  0  0  0  0  0  0  0  0  0  0  0  0  0  0  0  0  0  0  0
 ITRead=  0  0  0  0  0  0  0  0  0  0  0  0  0  0  0  0
 MicOpt= -1 -1 -1 -1 -1 -1 -1 -1 -1 -1 -1 -1 -1 -1 -1 -1 -1 -1 -1 -1
 MicOpt= -1 -1 -1 -1 -1 -1 -1 -1 -1 -1 -1 -1 -1 -1 -1 -1
 NAtoms=     36 NQM=       36 NQMF=       0 NMMI=      0 NMMIF=      0
                NMic=       0 NMicF=      0.
                    Isotopes and Nuclear Properties:
 (Nuclear quadrupole moments (NQMom) in fm**2, nuclear magnetic moments (NMagM)
  in nuclear magnetons)

  Atom         1           2           3           4           5           6           7           8           9          10
 IAtWgt=          12          12          12          12          12          12           1           1          16          16
 AtmWgt=  12.0000000  12.0000000  12.0000000  12.0000000  12.0000000  12.0000000   1.0078250   1.0078250  15.9949146  15.9949146
 NucSpn=           0           0           0           0           0           0           1           1           0           0
 AtZEff=   0.0000000   0.0000000   0.0000000   0.0000000   0.0000000   0.0000000   0.0000000   0.0000000   0.0000000   0.0000000
 NQMom=    0.0000000   0.0000000   0.0000000   0.0000000   0.0000000   0.0000000   0.0000000   0.0000000   0.0000000   0.0000000
 NMagM=    0.0000000   0.0000000   0.0000000   0.0000000   0.0000000   0.0000000   2.7928460   2.7928460   0.0000000   0.0000000
 AtZNuc=   6.0000000   6.0000000   6.0000000   6.0000000   6.0000000   6.0000000   1.0000000   1.0000000   8.0000000   8.0000000

  Atom        11          12          13          14          15          16          17          18          19          20
 IAtWgt=          12          12           1           1           1          12           1           1           1          12
 AtmWgt=  12.0000000  12.0000000   1.0078250   1.0078250   1.0078250  12.0000000   1.0078250   1.0078250   1.0078250  12.0000000
 NucSpn=           0           0           1           1           1           0           1           1           1           0
 AtZEff=   0.0000000   0.0000000   0.0000000   0.0000000   0.0000000   0.0000000   0.0000000   0.0000000   0.0000000   0.0000000
 NQMom=    0.0000000   0.0000000   0.0000000   0.0000000   0.0000000   0.0000000   0.0000000   0.0000000   0.0000000   0.0000000
 NMagM=    0.0000000   0.0000000   2.7928460   2.7928460   2.7928460   0.0000000   2.7928460   2.7928460   2.7928460   0.0000000
 AtZNuc=   6.0000000   6.0000000   1.0000000   1.0000000   1.0000000   6.0000000   1.0000000   1.0000000   1.0000000   6.0000000

  Atom        21          22          23          24          25          26          27          28          29          30
 IAtWgt=           1           1           1          12          12           1           1           1          12           1
 AtmWgt=   1.0078250   1.0078250   1.0078250  12.0000000  12.0000000   1.0078250   1.0078250   1.0078250  12.0000000   1.0078250
 NucSpn=           1           1           1           0           0           1           1           1           0           1
 AtZEff=   0.0000000   0.0000000   0.0000000   0.0000000   0.0000000   0.0000000   0.0000000   0.0000000   0.0000000   0.0000000
 NQMom=    0.0000000   0.0000000   0.0000000   0.0000000   0.0000000   0.0000000   0.0000000   0.0000000   0.0000000   0.0000000
 NMagM=    2.7928460   2.7928460   2.7928460   0.0000000   0.0000000   2.7928460   2.7928460   2.7928460   0.0000000   2.7928460
 AtZNuc=   1.0000000   1.0000000   1.0000000   6.0000000   6.0000000   1.0000000   1.0000000   1.0000000   6.0000000   1.0000000

  Atom        31          32          33          34          35          36
 IAtWgt=           1           1          12           1           1           1
 AtmWgt=   1.0078250   1.0078250  12.0000000   1.0078250   1.0078250   1.0078250
 NucSpn=           1           1           0           1           1           1
 AtZEff=   0.0000000   0.0000000   0.0000000   0.0000000   0.0000000   0.0000000
 NQMom=    0.0000000   0.0000000   0.0000000   0.0000000   0.0000000   0.0000000
 NMagM=    2.7928460   2.7928460   0.0000000   2.7928460   2.7928460   2.7928460
 AtZNuc=   1.0000000   1.0000000   6.0000000   1.0000000   1.0000000   1.0000000
 Leave Link  101 at Wed Apr  9 18:02:23 2025, MaxMem=  8053063680 cpu:              40.8 elap:               1.1
 (Enter /export/g16/l103.exe)

 GradGradGradGradGradGradGradGradGradGradGradGradGradGradGradGradGradGrad
 Berny optimization.
 Initialization pass.
                           ----------------------------
                           !    Initial Parameters    !
                           ! (Angstroms and Degrees)  !
 --------------------------                            --------------------------
 ! Name  Definition              Value          Derivative Info.                !
 --------------------------------------------------------------------------------
 ! R1    R(1,2)                  1.3769         estimate D2E/DX2                !
 ! R2    R(1,3)                  1.4293         estimate D2E/DX2                !
 ! R3    R(1,8)                  1.084          estimate D2E/DX2                !
 ! R4    R(2,6)                  1.4288         estimate D2E/DX2                !
 ! R5    R(2,24)                 1.5399         estimate D2E/DX2                !
 ! R6    R(3,4)                  1.493          estimate D2E/DX2                !
 ! R7    R(3,9)                  1.2681         estimate D2E/DX2                !
 ! R8    R(4,5)                  1.4557         estimate D2E/DX2                !
 ! R9    R(4,10)                 1.2636         estimate D2E/DX2                !
 ! R10   R(5,6)                  1.3801         estimate D2E/DX2                !
 ! R11   R(5,11)                 1.539          estimate D2E/DX2                !
 ! R12   R(6,7)                  1.0765         estimate D2E/DX2                !
 ! R13   R(11,12)                1.5446         estimate D2E/DX2                !
 ! R14   R(11,16)                1.5446         estimate D2E/DX2                !
 ! R15   R(11,20)                1.5387         estimate D2E/DX2                !
 ! R16   R(12,13)                1.0938         estimate D2E/DX2                !
 ! R17   R(12,14)                1.0943         estimate D2E/DX2                !
 ! R18   R(12,15)                1.0878         estimate D2E/DX2                !
 ! R19   R(16,17)                1.0943         estimate D2E/DX2                !
 ! R20   R(16,18)                1.0938         estimate D2E/DX2                !
 ! R21   R(16,19)                1.0878         estimate D2E/DX2                !
 ! R22   R(20,21)                1.0928         estimate D2E/DX2                !
 ! R23   R(20,22)                1.0927         estimate D2E/DX2                !
 ! R24   R(20,23)                1.0927         estimate D2E/DX2                !
 ! R25   R(24,25)                1.5378         estimate D2E/DX2                !
 ! R26   R(24,29)                1.5437         estimate D2E/DX2                !
 ! R27   R(24,33)                1.5437         estimate D2E/DX2                !
 ! R28   R(25,26)                1.0924         estimate D2E/DX2                !
 ! R29   R(25,27)                1.0925         estimate D2E/DX2                !
 ! R30   R(25,28)                1.0924         estimate D2E/DX2                !
 ! R31   R(29,30)                1.0937         estimate D2E/DX2                !
 ! R32   R(29,31)                1.091          estimate D2E/DX2                !
 ! R33   R(29,32)                1.0929         estimate D2E/DX2                !
 ! R34   R(33,34)                1.0937         estimate D2E/DX2                !
 ! R35   R(33,35)                1.0929         estimate D2E/DX2                !
 ! R36   R(33,36)                1.091          estimate D2E/DX2                !
 ! A1    A(2,1,3)              122.792          estimate D2E/DX2                !
 ! A2    A(2,1,8)              121.2161         estimate D2E/DX2                !
 ! A3    A(3,1,8)              115.9919         estimate D2E/DX2                !
 ! A4    A(1,2,6)              118.0745         estimate D2E/DX2                !
 ! A5    A(1,2,24)             120.1591         estimate D2E/DX2                !
 ! A6    A(6,2,24)             121.7664         estimate D2E/DX2                !
 ! A7    A(1,3,4)              118.2128         estimate D2E/DX2                !
 ! A8    A(1,3,9)              121.6139         estimate D2E/DX2                !
 ! A9    A(4,3,9)              120.1733         estimate D2E/DX2                !
 ! A10   A(3,4,5)              117.9603         estimate D2E/DX2                !
 ! A11   A(3,4,10)             118.9878         estimate D2E/DX2                !
 ! A12   A(5,4,10)             123.0519         estimate D2E/DX2                !
 ! A13   A(4,5,6)              118.8638         estimate D2E/DX2                !
 ! A14   A(4,5,11)             119.7691         estimate D2E/DX2                !
 ! A15   A(6,5,11)             121.3671         estimate D2E/DX2                !
 ! A16   A(2,6,5)              124.0966         estimate D2E/DX2                !
 ! A17   A(2,6,7)              117.4958         estimate D2E/DX2                !
 ! A18   A(5,6,7)              118.4076         estimate D2E/DX2                !
 ! A19   A(5,11,12)            110.0724         estimate D2E/DX2                !
 ! A20   A(5,11,16)            110.0724         estimate D2E/DX2                !
 ! A21   A(5,11,20)            112.6119         estimate D2E/DX2                !
 ! A22   A(12,11,16)           109.6211         estimate D2E/DX2                !
 ! A23   A(12,11,20)           107.181          estimate D2E/DX2                !
 ! A24   A(16,11,20)           107.181          estimate D2E/DX2                !
 ! A25   A(11,12,13)           110.5783         estimate D2E/DX2                !
 ! A26   A(11,12,14)           110.1025         estimate D2E/DX2                !
 ! A27   A(11,12,15)           111.1849         estimate D2E/DX2                !
 ! A28   A(13,12,14)           107.7404         estimate D2E/DX2                !
 ! A29   A(13,12,15)           108.5039         estimate D2E/DX2                !
 ! A30   A(14,12,15)           108.6358         estimate D2E/DX2                !
 ! A31   A(11,16,17)           110.1029         estimate D2E/DX2                !
 ! A32   A(11,16,18)           110.5784         estimate D2E/DX2                !
 ! A33   A(11,16,19)           111.1843         estimate D2E/DX2                !
 ! A34   A(17,16,18)           107.7411         estimate D2E/DX2                !
 ! A35   A(17,16,19)           108.6352         estimate D2E/DX2                !
 ! A36   A(18,16,19)           108.5038         estimate D2E/DX2                !
 ! A37   A(11,20,21)           109.1006         estimate D2E/DX2                !
 ! A38   A(11,20,22)           112.184          estimate D2E/DX2                !
 ! A39   A(11,20,23)           112.184          estimate D2E/DX2                !
 ! A40   A(21,20,22)           107.4599         estimate D2E/DX2                !
 ! A41   A(21,20,23)           107.4599         estimate D2E/DX2                !
 ! A42   A(22,20,23)           108.2382         estimate D2E/DX2                !
 ! A43   A(2,24,25)            112.9874         estimate D2E/DX2                !
 ! A44   A(2,24,29)            109.585          estimate D2E/DX2                !
 ! A45   A(2,24,33)            109.585          estimate D2E/DX2                !
 ! A46   A(25,24,29)           107.8027         estimate D2E/DX2                !
 ! A47   A(25,24,33)           107.8027         estimate D2E/DX2                !
 ! A48   A(29,24,33)           108.9857         estimate D2E/DX2                !
 ! A49   A(24,25,26)           112.0291         estimate D2E/DX2                !
 ! A50   A(24,25,27)           109.3602         estimate D2E/DX2                !
 ! A51   A(24,25,28)           112.029          estimate D2E/DX2                !
 ! A52   A(26,25,27)           107.4958         estimate D2E/DX2                !
 ! A53   A(26,25,28)           108.2305         estimate D2E/DX2                !
 ! A54   A(27,25,28)           107.4952         estimate D2E/DX2                !
 ! A55   A(24,29,30)           110.3066         estimate D2E/DX2                !
 ! A56   A(24,29,31)           111.6967         estimate D2E/DX2                !
 ! A57   A(24,29,32)           110.887          estimate D2E/DX2                !
 ! A58   A(30,29,31)           107.8759         estimate D2E/DX2                !
 ! A59   A(30,29,32)           108.0138         estimate D2E/DX2                !
 ! A60   A(31,29,32)           107.9238         estimate D2E/DX2                !
 ! A61   A(24,33,34)           110.3069         estimate D2E/DX2                !
 ! A62   A(24,33,35)           110.8869         estimate D2E/DX2                !
 ! A63   A(24,33,36)           111.6968         estimate D2E/DX2                !
 ! A64   A(34,33,35)           108.0135         estimate D2E/DX2                !
 ! A65   A(34,33,36)           107.8766         estimate D2E/DX2                !
 ! A66   A(35,33,36)           107.9229         estimate D2E/DX2                !
 ! D1    D(3,1,2,6)              0.0            estimate D2E/DX2                !
 ! D2    D(3,1,2,24)           180.0            estimate D2E/DX2                !
 ! D3    D(8,1,2,6)            180.0            estimate D2E/DX2                !
 ! D4    D(8,1,2,24)             0.0            estimate D2E/DX2                !
 ! D5    D(2,1,3,4)              0.0            estimate D2E/DX2                !
 ! D6    D(2,1,3,9)            180.0            estimate D2E/DX2                !
 ! D7    D(8,1,3,4)            180.0            estimate D2E/DX2                !
 ! D8    D(8,1,3,9)              0.0            estimate D2E/DX2                !
 ! D9    D(1,2,6,5)              0.0            estimate D2E/DX2                !
 ! D10   D(1,2,6,7)            180.0            estimate D2E/DX2                !
 ! D11   D(24,2,6,5)           180.0            estimate D2E/DX2                !
 ! D12   D(24,2,6,7)             0.0            estimate D2E/DX2                !
 ! D13   D(1,2,24,25)          180.0            estimate D2E/DX2                !
 ! D14   D(1,2,24,29)          -59.7723         estimate D2E/DX2                !
 ! D15   D(1,2,24,33)           59.7723         estimate D2E/DX2                !
 ! D16   D(6,2,24,25)            0.0            estimate D2E/DX2                !
 ! D17   D(6,2,24,29)          120.2277         estimate D2E/DX2                !
 ! D18   D(6,2,24,33)         -120.2277         estimate D2E/DX2                !
 ! D19   D(1,3,4,5)              0.0            estimate D2E/DX2                !
 ! D20   D(1,3,4,10)           180.0            estimate D2E/DX2                !
 ! D21   D(9,3,4,5)            180.0            estimate D2E/DX2                !
 ! D22   D(9,3,4,10)             0.0            estimate D2E/DX2                !
 ! D23   D(3,4,5,6)              0.0            estimate D2E/DX2                !
 ! D24   D(3,4,5,11)           180.0            estimate D2E/DX2                !
 ! D25   D(10,4,5,6)           180.0            estimate D2E/DX2                !
 ! D26   D(10,4,5,11)            0.0            estimate D2E/DX2                !
 ! D27   D(4,5,6,2)              0.0            estimate D2E/DX2                !
 ! D28   D(4,5,6,7)            180.0            estimate D2E/DX2                !
 ! D29   D(11,5,6,2)           180.0            estimate D2E/DX2                !
 ! D30   D(11,5,6,7)             0.0            estimate D2E/DX2                !
 ! D31   D(4,5,11,12)          -60.4704         estimate D2E/DX2                !
 ! D32   D(4,5,11,16)           60.4704         estimate D2E/DX2                !
 ! D33   D(4,5,11,20)          180.0            estimate D2E/DX2                !
 ! D34   D(6,5,11,12)          119.5296         estimate D2E/DX2                !
 ! D35   D(6,5,11,16)         -119.5296         estimate D2E/DX2                !
 ! D36   D(6,5,11,20)            0.0            estimate D2E/DX2                !
 ! D37   D(5,11,12,13)         -61.6979         estimate D2E/DX2                !
 ! D38   D(5,11,12,14)         179.3552         estimate D2E/DX2                !
 ! D39   D(5,11,12,15)          58.9047         estimate D2E/DX2                !
 ! D40   D(16,11,12,13)        177.0909         estimate D2E/DX2                !
 ! D41   D(16,11,12,14)         58.1441         estimate D2E/DX2                !
 ! D42   D(16,11,12,15)        -62.3065         estimate D2E/DX2                !
 ! D43   D(20,11,12,13)         61.0844         estimate D2E/DX2                !
 ! D44   D(20,11,12,14)        -57.8625         estimate D2E/DX2                !
 ! D45   D(20,11,12,15)       -178.313          estimate D2E/DX2                !
 ! D46   D(5,11,16,17)        -179.3545         estimate D2E/DX2                !
 ! D47   D(5,11,16,18)          61.6974         estimate D2E/DX2                !
 ! D48   D(5,11,16,19)         -58.9048         estimate D2E/DX2                !
 ! D49   D(12,11,16,17)        -58.1434         estimate D2E/DX2                !
 ! D50   D(12,11,16,18)       -177.0914         estimate D2E/DX2                !
 ! D51   D(12,11,16,19)         62.3063         estimate D2E/DX2                !
 ! D52   D(20,11,16,17)         57.8631         estimate D2E/DX2                !
 ! D53   D(20,11,16,18)        -61.0849         estimate D2E/DX2                !
 ! D54   D(20,11,16,19)        178.3128         estimate D2E/DX2                !
 ! D55   D(5,11,20,21)         180.0            estimate D2E/DX2                !
 ! D56   D(5,11,20,22)          61.046          estimate D2E/DX2                !
 ! D57   D(5,11,20,23)         -61.046          estimate D2E/DX2                !
 ! D58   D(12,11,20,21)         58.8065         estimate D2E/DX2                !
 ! D59   D(12,11,20,22)        -60.1475         estimate D2E/DX2                !
 ! D60   D(12,11,20,23)        177.7605         estimate D2E/DX2                !
 ! D61   D(16,11,20,21)        -58.8065         estimate D2E/DX2                !
 ! D62   D(16,11,20,22)       -177.7605         estimate D2E/DX2                !
 ! D63   D(16,11,20,23)         60.1475         estimate D2E/DX2                !
 ! D64   D(2,24,25,26)         -60.9271         estimate D2E/DX2                !
 ! D65   D(2,24,25,27)         180.0            estimate D2E/DX2                !
 ! D66   D(2,24,25,28)          60.9278         estimate D2E/DX2                !
 ! D67   D(29,24,25,26)        177.8308         estimate D2E/DX2                !
 ! D68   D(29,24,25,27)         58.7579         estimate D2E/DX2                !
 ! D69   D(29,24,25,28)        -60.3142         estimate D2E/DX2                !
 ! D70   D(33,24,25,26)         60.315          estimate D2E/DX2                !
 ! D71   D(33,24,25,27)        -58.7579         estimate D2E/DX2                !
 ! D72   D(33,24,25,28)       -177.8301         estimate D2E/DX2                !
 ! D73   D(2,24,29,30)         179.7622         estimate D2E/DX2                !
 ! D74   D(2,24,29,31)          59.7962         estimate D2E/DX2                !
 ! D75   D(2,24,29,32)         -60.6246         estimate D2E/DX2                !
 ! D76   D(25,24,29,30)        -56.8977         estimate D2E/DX2                !
 ! D77   D(25,24,29,31)       -176.8638         estimate D2E/DX2                !
 ! D78   D(25,24,29,32)         62.7155         estimate D2E/DX2                !
 ! D79   D(33,24,29,30)         59.8504         estimate D2E/DX2                !
 ! D80   D(33,24,29,31)        -60.1157         estimate D2E/DX2                !
 ! D81   D(33,24,29,32)        179.4636         estimate D2E/DX2                !
 ! D82   D(2,24,33,34)        -179.7627         estimate D2E/DX2                !
 ! D83   D(2,24,33,35)          60.6243         estimate D2E/DX2                !
 ! D84   D(2,24,33,36)         -59.7954         estimate D2E/DX2                !
 ! D85   D(25,24,33,34)         56.8972         estimate D2E/DX2                !
 ! D86   D(25,24,33,35)        -62.7158         estimate D2E/DX2                !
 ! D87   D(25,24,33,36)        176.8645         estimate D2E/DX2                !
 ! D88   D(29,24,33,34)        -59.8509         estimate D2E/DX2                !
 ! D89   D(29,24,33,35)       -179.4639         estimate D2E/DX2                !
 ! D90   D(29,24,33,36)         60.1164         estimate D2E/DX2                !
 --------------------------------------------------------------------------------
 Trust Radius=3.00D-01 FncErr=5.00D-06 GrdErr=5.00D-06 EigMax=2.50D+02 EigMin=1.00D-04
 Number of steps in this run=    202 maximum allowed number of steps=    216.
 GradGradGradGradGradGradGradGradGradGradGradGradGradGradGradGradGradGrad

 Leave Link  103 at Wed Apr  9 18:02:24 2025, MaxMem=  8053063680 cpu:               4.5 elap:               0.2
 (Enter /export/g16/l202.exe)
                          Input orientation:                          
 ---------------------------------------------------------------------
 Center     Atomic      Atomic             Coordinates (Angstroms)
 Number     Number       Type             X           Y           Z
 ---------------------------------------------------------------------
      1          6           0       -1.269630    1.459050    0.000000
      2          6           0       -1.367880    0.085680    0.000000
      3          6           0       -0.015900    2.145450    0.000000
      4          6           0        1.235030    1.330380    0.000000
      5          6           0        1.104950   -0.119470    0.000000
      6          6           0       -0.158370   -0.675000    0.000000
      7          1           0       -0.246030   -1.747960    0.000000
      8          1           0       -2.154220    2.085560    0.000000
      9          8           0        0.048560    3.411870    0.000000
     10          8           0        2.351470    1.922130    0.000000
     11          6           0        2.367220   -0.999910    0.000000
     12          6           0        3.211080   -0.716710   -1.262310
     13          1           0        2.645310   -0.961400   -2.165840
     14          1           0        4.114510   -1.334230   -1.257130
     15          1           0        3.505330    0.329370   -1.311930
     16          6           0        3.211080   -0.716710    1.262310
     17          1           0        4.114520   -1.334220    1.257130
     18          1           0        2.645310   -0.961390    2.165840
     19          1           0        3.505330    0.329380    1.311920
     20          6           0        2.039850   -2.503370    0.000000
     21          1           0        2.972730   -3.072460    0.000000
     22          1           0        1.473480   -2.802280   -0.885310
     23          1           0        1.473480   -2.802280    0.885310
     24          6           0       -2.751100   -0.590970    0.000000
     25          6           0       -2.668480   -2.126560    0.000000
     26          1           0       -2.155130   -2.509250   -0.885020
     27          1           0       -3.678250   -2.543580    0.000000
     28          1           0       -2.155140   -2.509250    0.885030
     29          6           0       -3.537660   -0.160640    1.256630
     30          1           0       -4.524660   -0.631650    1.266390
     31          1           0       -3.682030    0.920250    1.291610
     32          1           0       -3.011610   -0.459340    2.166850
     33          6           0       -3.537660   -0.160640   -1.256630
     34          1           0       -4.524650   -0.631650   -1.266400
     35          1           0       -3.011600   -0.459340   -2.166860
     36          1           0       -3.682020    0.920250   -1.291620
 ---------------------------------------------------------------------
                    Distance matrix (angstroms):
                    1          2          3          4          5
     1  C    0.000000
     2  C    1.376880   0.000000
     3  C    1.429330   2.463839   0.000000
     4  C    2.507963   2.885207   1.493039   0.000000
     5  C    2.851378   2.481325   2.527087   1.455674   0.000000
     6  C    2.406048   1.428828   2.824046   2.441949   1.380069
     7  H    3.366403   2.149601   3.900205   3.416097   2.115922
     8  H    1.083981   2.148918   2.139159   3.472364   3.935015
     9  O    2.356084   3.615224   1.268059   2.395895   3.685963
    10  O    3.650590   4.148025   2.377880   1.263569   2.392058
    11  C    4.390121   3.889663   3.946207   2.590773   1.538993
    12  C    5.138494   4.817067   4.494306   3.112680   2.527035
    13  H    5.086865   4.678989   4.628760   3.454274   2.787906
    14  H    6.194494   5.801131   5.545163   4.119700   3.480441
    15  H    5.079132   5.052595   4.173532   2.806678   2.772083
    16  C    5.138494   4.817067   4.494306   3.112680   2.527035
    17  H    6.194498   5.801138   5.545164   4.119700   3.480446
    18  H    5.086860   4.678986   4.628753   3.454267   2.787903
    19  H    5.079127   5.052593   4.173524   2.806670   2.772079
    20  C    5.162696   4.279697   5.083073   3.917317   2.560667
    21  H    6.207431   5.367937   6.013193   4.733350   3.494102
    22  H    5.144644   4.146976   5.242333   4.233144   2.849045
    23  H    5.144644   4.146976   5.242333   4.233144   2.849045
    24  C    2.529295   1.539855   3.869020   4.425022   3.884769
    25  C    3.848815   2.566236   5.028544   5.214195   4.274013
    26  H    4.161103   2.852487   5.198634   5.198000   4.137926
    27  H    4.671456   3.500117   5.949774   6.256827   5.362398
    28  H    4.161107   2.852493   5.198640   5.198008   4.137936
    29  C    3.057200   2.519472   4.393172   5.155660   4.809848
    30  H    4.070625   3.476142   5.444717   6.215089   5.792977
    31  H    2.788949   2.778498   4.075522   5.100386   5.066009
    32  H    3.377862   2.773830   4.522659   5.092375   4.664420
    33  C    3.057200   2.519472   4.393172   5.155660   4.809848
    34  H    4.070620   3.476137   5.444711   6.215082   5.792969
    35  H    3.377864   2.773832   4.522658   5.092371   4.664416
    36  H    2.788945   2.778495   4.075516   5.100379   5.066003
                    6          7          8          9         10
     6  C    0.000000
     7  H    1.076535   0.000000
     8  H    3.406480   4.282180   0.000000
     9  O    4.092105   5.168233   2.571252   0.000000
    10  O    3.611701   4.496284   4.508653   2.742758   0.000000
    11  C    2.546404   2.718208   5.473897   4.983973   2.922082
    12  C    3.598383   3.822108   6.183251   5.351648   3.048907
    13  H    3.554365   3.697213   6.083610   5.528062   3.618280
    14  H    4.502495   4.556957   7.250677   6.374778   3.910571
    15  H    4.019032   4.484324   6.069256   4.813754   2.364199
    16  C    3.598383   3.822108   6.183251   5.351648   3.048907
    17  H    4.502503   4.556968   7.250681   6.374777   3.910567
    18  H    3.554364   3.697215   6.083605   5.528054   3.618272
    19  H    4.019031   4.484326   6.069251   4.813745   2.364187
    20  C    2.859215   2.407466   6.216792   6.241418   4.436458
    21  H    3.943552   3.480620   7.272605   7.113178   5.033080
    22  H    2.823478   2.202744   6.151013   6.436601   4.886173
    23  H    2.823478   2.202744   6.151013   6.436601   4.886173
    24  C    2.594091   2.759348   2.742276   4.884754   5.687872
    25  C    2.899600   2.451857   4.243397   6.168996   6.449170
    26  H    2.852154   2.237741   4.679267   6.379590   6.381993
    27  H    3.985116   3.523229   4.873562   7.025418   7.503339
    28  H    2.852164   2.237754   4.679269   6.379595   6.382001
    29  C    3.641879   3.864393   2.922061   5.215642   6.371727
    30  H    4.546439   4.599627   3.821774   6.234432   7.443568
    31  H    4.077899   4.538028   2.315255   4.668375   6.251011
    32  H    3.589252   3.742220   3.450634   5.389448   6.255339
    33  C    3.641879   3.864393   2.922061   5.215642   6.371727
    34  H    4.546433   4.599620   3.821772   6.234426   7.443560
    35  H    3.589250   3.742219   3.450637   5.389446   6.255334
    36  H    4.077893   4.538023   2.315254   4.668370   6.251004
                   11         12         13         14         15
    11  C    0.000000
    12  C    1.544580   0.000000
    13  H    2.183960   1.093771   0.000000
    14  H    2.178341   1.094323   1.767287   0.000000
    15  H    2.187108   1.087809   1.770560   1.772475   0.000000
    16  C    1.544580   2.524620   3.483128   2.746834   2.794204
    17  H    2.178347   2.746835   3.743567   2.514260   3.120691
    18  H    2.183960   3.483127   4.331680   3.743565   3.807963
    19  H    2.187108   2.794199   3.807960   3.120692   2.623850
    20  C    1.538689   2.481403   2.726741   2.692857   3.448653
    21  H    2.159191   2.683243   3.042144   2.430120   3.684735
    22  H    2.197972   2.740618   2.530174   3.044415   3.757346
    23  H    2.197972   3.461377   3.751205   3.704087   4.331687
    24  C    5.134631   6.095640   5.826605   7.019217   6.458413
    25  C    5.160195   6.176595   5.855324   6.943855   6.772642
    26  H    4.849022   5.670252   5.203899   6.389642   6.346718
    27  H    6.239441   7.238353   6.868884   7.985613   7.847218
    28  H    4.849033   6.051495   5.894741   6.728895   6.702635
    29  C    6.095170   7.224940   7.112217   8.139534   7.512744
    30  H    7.016934   8.138995   7.955967   9.027571   8.488347
    31  H    6.476781   7.531076   7.451832   8.506750   7.667184
    32  H    5.824025   7.109659   7.143179   7.954285   7.429299
    33  C    6.095170   6.771613   6.300555   7.741642   7.060232
    34  H    7.016926   7.736199   7.233675   8.667687   8.087411
    35  H    5.824019   6.293345   5.679146   7.237022   6.619920
    36  H    6.476774   7.084866   6.658827   8.116018   7.211626
                   16         17         18         19         20
    16  C    0.000000
    17  H    1.094326   0.000000
    18  H    1.093769   1.767296   0.000000
    19  H    1.087818   1.772478   1.770565   0.000000
    20  C    2.481403   2.692869   2.726747   3.448657   0.000000
    21  H    2.683243   2.430131   3.042151   3.684740   1.092762
    22  H    3.461377   3.704098   3.751210   4.331689   1.092655
    23  H    2.740618   3.044428   2.530182   3.757353   1.092655
    24  C    6.095640   7.019226   5.826604   6.458413   5.158534
    25  C    6.176595   6.943865   5.855326   6.772644   4.723384
    26  H    6.051482   6.728894   5.894730   6.702624   4.287325
    27  H    7.238353   7.985624   6.868886   7.847220   5.718241
    28  H    5.670261   6.389663   5.203909   6.346730   4.287336
    29  C    6.771613   7.741650   6.300554   7.060233   6.178683
    30  H    7.736209   8.667706   7.233686   8.087422   6.942613
    31  H    7.084876   8.116034   6.658835   7.211635   6.791858
    32  H    6.293354   7.237039   5.679155   6.619931   5.864345
    33  C    7.224940   8.139542   7.112216   7.512741   6.178683
    34  H    8.138988   9.027573   7.955962   8.488339   6.942605
    35  H    7.109655   7.954289   7.143177   7.429291   5.864340
    36  H    7.531071   8.506750   7.451826   7.667173   6.791852
                   21         22         23         24         25
    21  H    0.000000
    22  H    1.761965   0.000000
    23  H    1.761965   1.770620   0.000000
    24  C    6.238591   4.849819   4.849819   0.000000
    25  C    5.719963   4.289080   4.289080   1.537811   0.000000
    26  H    5.234063   3.640423   4.048055   2.195049   1.092355
    27  H    6.671975   5.233643   5.233643   2.161549   1.092493
    28  H    5.234074   4.048068   3.640433   2.195050   1.092359
    29  C    7.241753   6.056211   5.676941   1.543690   2.489866
    30  H    7.985747   6.731949   6.390191   2.179659   2.698871
    31  H    7.867390   6.721272   6.371938   2.195148   3.461010
    32  H    6.880113   5.909406   5.219937   2.186420   2.755467
    33  C    7.241753   5.676941   6.056211   1.543690   2.489866
    34  H    7.985739   6.390182   6.731943   2.179657   2.698869
    35  H    6.880108   5.219931   5.909404   2.186428   2.755474
    36  H    7.867383   6.371930   6.721267   2.195149   3.461011
                   26         27         28         29         30
    26  H    0.000000
    27  H    1.761912   0.000000
    28  H    1.770050   1.761908   0.000000
    29  C    3.466125   2.697645   2.750530   0.000000
    30  H    3.710609   2.444510   3.047202   1.093670   0.000000
    31  H    4.339425   3.696808   3.775999   1.091050   1.766085
    32  H    3.774864   3.079562   2.564904   1.092909   1.769135
    33  C    2.750537   2.697645   3.466127   2.513260   2.749845
    34  H    3.047205   2.444512   3.710608   2.749851   2.532790
    35  H    2.564914   3.079572   3.774876   3.476528   3.755828
    36  H    3.776001   3.696811   4.339428   2.771776   3.108352
                   31         32         33         34         35
    31  H    0.000000
    32  H    1.766006   0.000000
    33  C    2.771767   3.476516   0.000000
    34  H    3.108346   3.755820   1.093661   0.000000
    35  H    3.783353   4.333710   1.092922   1.769135   0.000000
    36  H    2.583230   3.783349   1.091049   1.766085   1.766006
                   36
    36  H    0.000000
 Stoichiometry    C14H20O2(1-,2)
 Framework group  C1[X(C14H20O2)]
 Deg. of freedom   102
 Full point group                 C1      NOp   1
 Largest Abelian subgroup         C1      NOp   1
 Largest concise Abelian subgroup C1      NOp   1
                         Standard orientation:                         
 ---------------------------------------------------------------------
 Center     Atomic      Atomic             Coordinates (Angstroms)
 Number     Number       Type             X           Y           Z
 ---------------------------------------------------------------------
      1          6           0        1.269631    1.459050    0.000000
      2          6           0        1.367881    0.085680    0.000000
      3          6           0        0.015901    2.145450    0.000000
      4          6           0       -1.235029    1.330380    0.000000
      5          6           0       -1.104949   -0.119470    0.000000
      6          6           0        0.158371   -0.675000    0.000000
      7          1           0        0.246030   -1.747960    0.000000
      8          1           0        2.154221    2.085560    0.000000
      9          8           0       -0.048559    3.411870    0.000000
     10          8           0       -2.351469    1.922130    0.000000
     11          6           0       -2.367219   -0.999910    0.000000
     12          6           0       -3.211079   -0.716710    1.262310
     13          1           0       -2.645309   -0.961400    2.165840
     14          1           0       -4.114509   -1.334230    1.257130
     15          1           0       -3.505329    0.329370    1.311930
     16          6           0       -3.211079   -0.716710   -1.262310
     17          1           0       -4.114519   -1.334220   -1.257130
     18          1           0       -2.645309   -0.961390   -2.165840
     19          1           0       -3.505329    0.329380   -1.311920
     20          6           0       -2.039850   -2.503370    0.000000
     21          1           0       -2.972730   -3.072460    0.000000
     22          1           0       -1.473480   -2.802280    0.885310
     23          1           0       -1.473480   -2.802280   -0.885310
     24          6           0        2.751101   -0.590970    0.000000
     25          6           0        2.668480   -2.126560    0.000000
     26          1           0        2.155130   -2.509250    0.885020
     27          1           0        3.678250   -2.543580    0.000000
     28          1           0        2.155140   -2.509250   -0.885030
     29          6           0        3.537661   -0.160640   -1.256630
     30          1           0        4.524661   -0.631651   -1.266390
     31          1           0        3.682031    0.920250   -1.291610
     32          1           0        3.011611   -0.459340   -2.166850
     33          6           0        3.537661   -0.160640    1.256630
     34          1           0        4.524651   -0.631651    1.266400
     35          1           0        3.011601   -0.459340    2.166860
     36          1           0        3.682021    0.920250    1.291620
 ---------------------------------------------------------------------
 Rotational constants (GHZ):           0.7413864           0.3836664           0.2845658
 Leave Link  202 at Wed Apr  9 18:02:24 2025, MaxMem=  8053063680 cpu:               5.0 elap:               0.2
 (Enter /export/g16/l301.exe)
 Standard basis: 6-31+G(d) (6D, 7F)
 Ernie: Thresh=  0.10000D-02 Tol=  0.10000D-05 Strict=F.
 There are   344 symmetry adapted cartesian basis functions of A   symmetry.
 There are   344 symmetry adapted basis functions of A   symmetry.
   344 basis functions,   592 primitive gaussians,   344 cartesian basis functions
    61 alpha electrons       60 beta electrons
       nuclear repulsion energy      1134.6561561997 Hartrees.
 IExCor= 4336 DFT=T Ex+Corr=M062X ExCW=0 ScaHFX=  0.540000
 ScaDFX=  1.000000  1.000000  1.000000  1.000000 ScalE2=  1.000000  1.000000
 IRadAn=      5 IRanWt=     -1 IRanGd=            0 ICorTp=0 IEmpDi=  4
 NAtoms=   36 NActive=   36 NUniq=   36 SFac= 1.00D+00 NAtFMM=   60 NAOKFM=F Big=F
 Integral buffers will be    131072 words long.
 Raffenetti 2 integral format.
 Two-electron integral symmetry is turned on.
 ------------------------------------------------------------------------------
 Polarizable Continuum Model (PCM)
 =================================
 Model                : PCM.
 Atomic radii         : SMD-Coulomb.
 Polarization charges : Total charges.
 Charge compensation  : None.
 Solution method      : On-the-fly selection.
 Cavity type          : VdW (van der Waals Surface) (Alpha=1.000).
 Cavity algorithm     : GePol (No added spheres)
                        Default sphere list used, NSphG=   36.
                        Lebedev-Laikov grids with approx.  5.0 points / Ang**2.
                        Smoothing algorithm: York/Karplus (Gamma=1.0000).
                        Polarization charges: spherical gaussians, with
                                              point-specific exponents (IZeta= 3).
                        Self-potential: point-specific (ISelfS= 7).
                        Self-field    : sphere-specific E.n sum rule (ISelfD= 2).
 1st derivatives      : Analytical E(r).r(x)/FMM algorithm (CHGder, D1EAlg=3).
                        Cavity 1st derivative terms included.
 Solvent              : Water, Eps=  78.355300 Eps(inf)=   1.777849
 ------------------------------------------------------------------------------
 GePol: Number of generator spheres                  =      36
 GePol: Total number of spheres                      =      36
 GePol: Number of exposed spheres                    =      36 (100.00%)
 GePol: Number of points                             =    2414
 GePol: Average weight of points                     =       0.11
 GePol: Minimum weight of points                     =   0.11D-08
 GePol: Maximum weight of points                     =    0.21991
 GePol: Number of points with low weight             =     141
 GePol: Fraction of low-weight points (<1% of avg)   =       5.84%
 GePol: Cavity surface area                          =    268.759 Ang**2
 GePol: Cavity volume                                =    242.137 Ang**3
 ------------------------------------------------------------------------------
 Atomic radii for non-electrostatic terms: SMD-CDS.
 ------------------------------------------------------------------------------
 PCM non-electrostatic energy =         0.0118652546 Hartrees.
 Nuclear repulsion after PCM non-electrostatic terms =     1134.6680214543 Hartrees.
 Leave Link  301 at Wed Apr  9 18:02:24 2025, MaxMem=  8053063680 cpu:               9.6 elap:               0.3
 (Enter /export/g16/l302.exe)
 NPDir=0 NMtPBC=     1 NCelOv=     1 NCel=       1 NClECP=     1 NCelD=      1
         NCelK=      1 NCelE2=     1 NClLst=     1 CellRange=     0.0.
 One-electron integrals computed using PRISM.
 One-electron integral symmetry used in STVInt
 NBasis=   344 RedAO= T EigKep=  1.64D-06  NBF=   344
 NBsUse=   342 1.00D-06 EigRej=  5.84D-07 NBFU=   342
 Precomputing XC quadrature grid using
 IXCGrd= 4 IRadAn=           5 IRanWt=          -1 IRanGd=           0 AccXCQ= 0.00D+00.
 Generated NRdTot=       0 NPtTot=           0 NUsed=           0 NTot=          32
 NSgBfM=   343   343   343   343   343 MxSgAt=    36 MxSgA2=    36.
 Leave Link  302 at Wed Apr  9 18:02:25 2025, MaxMem=  8053063680 cpu:              33.4 elap:               0.9
 (Enter /export/g16/l303.exe)
 DipDrv:  MaxL=1.
 Leave Link  303 at Wed Apr  9 18:02:25 2025, MaxMem=  8053063680 cpu:              11.1 elap:               0.4
 (Enter /export/g16/l401.exe)
 ExpMin= 4.38D-02 ExpMax= 5.48D+03 ExpMxC= 8.25D+02 IAcc=3 IRadAn=         5 AccDes= 0.00D+00
 Harris functional with IExCor= 1009 and IRadAn=       5 diagonalized for initial guess.
 HarFok:  IExCor= 1009 AccDes= 0.00D+00 IRadAn=         5 IDoV= 1 UseB2=F ITyADJ=14
 ICtDFT=  3500011 ScaDFX=  1.000000  1.000000  1.000000  1.000000
 FoFCou: FMM=F IPFlag=           0 FMFlag=      100000 FMFlg1=           0
         NFxFlg=           0 DoJE=T BraDBF=F KetDBF=T FulRan=T
         wScrn=  0.000000 ICntrl=       500 IOpCl=  0 I1Cent=   200000004 NGrid=           0
         NMat0=    1 NMatS0=      1 NMatT0=    0 NMatD0=    1 NMtDS0=    0 NMtDT0=    0
 Petite list used in FoFCou.
 Harris En= -695.647153669316    
 JPrj=0 DoOrth=F DoCkMO=F.
 Initial guess <Sx>= 0.0000 <Sy>= 0.0000 <Sz>= 0.5000 <S**2>= 0.7500 S= 0.5000
 Leave Link  401 at Wed Apr  9 18:02:27 2025, MaxMem=  8053063680 cpu:              83.1 elap:               2.0
 (Enter /export/g16/l502.exe)
 Integral symmetry usage will be decided dynamically.
 UHF open shell SCF:
 Using DIIS extrapolation, IDIIS=    10.
 NGot=  8053063680 LenX=  8052808056 LenY=  8052689279
 Requested convergence on RMS density matrix=1.00D-08 within 128 cycles.
 Requested convergence on MAX density matrix=1.00D-06.
 Requested convergence on             energy=1.00D-06.
 Level shift goal  0.100 maximum shift  0.100.
 No special actions if energy rises.
 Dynamic level shift is on during FON iterations.
 Fock matrices will be formed incrementally for  20 cycles.

 Cycle   1  Pass 1  IDiag  1:
 FoFJK:  IHMeth= 1 ICntrl=       0 DoSepK=F KAlg= 0 I1Cent=           0 FoldK=F
 IRaf= 900000000 NMat=       1 IRICut=       1 DoRegI=T DoRafI=F ISym2E= 0 IDoP0=0 IntGTp=1.
 FoFCou: FMM=F IPFlag=           0 FMFlag=      100000 FMFlg1=           0
         NFxFlg=           0 DoJE=F BraDBF=F KetDBF=F FulRan=T
         wScrn=  0.000000 ICntrl=         0 IOpCl=  1 I1Cent=           0 NGrid=           0
         NMat0=    1 NMatS0=      1 NMatT0=    0 NMatD0=    1 NMtDS0=    0 NMtDT0=    0
 Symmetry not used in FoFCou.
 Inv3:  Mode=1 IEnd=    17482188.
 Iteration    1 A*A^-1 deviation from unit magnitude is 8.66D-15 for    679.
 Iteration    1 A*A^-1 deviation from orthogonality  is 2.74D-15 for   2061    812.
 Iteration    1 A^-1*A deviation from unit magnitude is 8.22D-15 for    679.
 Iteration    1 A^-1*A deviation from orthogonality  is 2.14D-14 for   1746   1717.
 E= -695.279080100763    
 DIIS: error= 5.17D-02 at cycle   1 NSaved=   1.
 NSaved= 1 IEnMin= 1 EnMin= -695.279080100763     IErMin= 1 ErrMin= 5.17D-02
 ErrMax= 5.17D-02  0.00D+00 EMaxC= 1.00D+00 BMatC= 2.28D+00 BMatP= 2.28D+00
 IDIUse=1 WtCom= 1.00D+00 WtEn= 0.00D+00
 Coeff-Com:  0.100D+01
 Coeff:      0.100D+01
 Gap=     0.250 Goal=     0.100 Shift=    0.000
 T= 1823. Gap= 0.155 NK=0 IS=   61 IE=  342 IFin=   62
          NO(<0.9)=   0  NV(>0.1)=   0     61.00e < EF      0.00e >EF  Err=0.0D+00
 Gap=     0.174 Goal=     0.100 Shift=    0.000
 T= 1823. Gap= 0.163 NK=0 IS=   61 IE=  342 IFin=   60
          NO(<0.9)=   0  NV(>0.1)=   0     60.00e < EF      0.00e >EF  Err=0.0D+00
 GapD=    0.174 DampG=1.000 DampE=0.500 DampFc=0.5000 IDamp=-1.
 Damping current iteration by 5.00D-01
 RMSDP=3.73D-02 MaxDP=3.03D+00              OVMax= 1.69D-01

 Cycle   2  Pass 1  IDiag  1:
 RMSU=  1.66D-02    CP:  8.31D-01
 E= -695.560838595890     Delta-E=       -0.281758495127 Rises=F Damp=T
 DIIS: error= 1.24D-02 at cycle   2 NSaved=   2.
 NSaved= 2 IEnMin= 2 EnMin= -695.560838595890     IErMin= 2 ErrMin= 1.24D-02
 ErrMax= 1.24D-02  0.00D+00 EMaxC= 1.00D+00 BMatC= 1.43D-01 BMatP= 2.28D+00
 IDIUse=1 WtCom= 1.00D+00 WtEn= 0.00D+00
 Coeff-Com: -0.901D-01 0.109D+01
 Coeff:     -0.901D-01 0.109D+01
 Gap=     0.239 Goal=     0.100 Shift=    0.000
 T= 1648. Gap= 0.231 NK=0 IS=   62 IE=  342 IFin=   61
          NO(<0.9)=   0  NV(>0.1)=   0     61.00e < EF      0.00e >EF  Err=0.0D+00
 Gap=     0.189 Goal=     0.100 Shift=    0.000
 T= 1648. Gap= 0.183 NK=0 IS=   61 IE=  342 IFin=   60
          NO(<0.9)=   0  NV(>0.1)=   0     60.00e < EF      0.00e >EF  Err=0.0D+00
 GapD=    0.189 DampG=1.000 DampE=0.500 DampFc=0.5000 IDamp=-1.
 Damping current iteration by 5.00D-01
 RMSDP=1.70D-02 MaxDP=2.20D+00 DE=-2.82D-01 OVMax= 9.37D-02

 Cycle   3  Pass 1  IDiag  1:
 RMSU=  4.38D-03    CP:  6.88D-01  8.92D-01
 E= -695.690530285205     Delta-E=       -0.129691689315 Rises=F Damp=T
 DIIS: error= 6.04D-03 at cycle   3 NSaved=   3.
 NSaved= 3 IEnMin= 3 EnMin= -695.690530285205     IErMin= 3 ErrMin= 6.04D-03
 ErrMax= 6.04D-03  0.00D+00 EMaxC= 1.00D+00 BMatC= 3.45D-02 BMatP= 1.43D-01
 IDIUse=1 WtCom= 1.00D+00 WtEn= 0.00D+00
 Coeff-Com: -0.758D-01-0.215D+00 0.129D+01
 Coeff:     -0.758D-01-0.215D+00 0.129D+01
 Gap=     0.244 Goal=     0.100 Shift=    0.000
 T= 1347. Gap= 0.242 NK=4 IS=   62 IE=   87 IFin=   61
          NO(<0.9)=   0  NV(>0.1)=   0     61.00e < EF      0.00e >EF  Err=0.0D+00
 Gap=     0.191 Goal=     0.100 Shift=    0.000
 T= 1347. Gap= 0.190 NK=4 IS=   61 IE=   87 IFin=   60
          NO(<0.9)=   0  NV(>0.1)=   0     60.00e < EF      0.00e >EF  Err=0.0D+00
 GapD=    0.191 DampG=1.000 DampE=1.000 DampFc=1.0000 IDamp=-1.
 RMSDP=8.54D-03 MaxDP=1.10D+00 DE=-1.30D-01 OVMax= 3.42D-02

 Cycle   4  Pass 1  IDiag  1:
 RMSU=  1.84D-03    CP:  5.55D-01  7.15D-01  1.94D+00
 E= -695.820953896047     Delta-E=       -0.130423610842 Rises=F Damp=F
 DIIS: error= 3.38D-03 at cycle   4 NSaved=   4.
 NSaved= 4 IEnMin= 4 EnMin= -695.820953896047     IErMin= 4 ErrMin= 3.38D-03
 ErrMax= 3.38D-03  0.00D+00 EMaxC= 1.00D+00 BMatC= 1.26D-02 BMatP= 3.45D-02
 IDIUse=1 WtCom= 1.00D+00 WtEn= 0.00D+00
 Coeff-Com: -0.188D-01-0.283D+00 0.664D+00 0.637D+00
 Coeff:     -0.188D-01-0.283D+00 0.664D+00 0.637D+00
 Gap=     0.242 Goal=     0.100 Shift=    0.000
 T=  645. Gap= 0.242 NK=4 IS=   62 IE=   88 IFin=   61
          NO(<0.9)=   0  NV(>0.1)=   0     61.00e < EF      0.00e >EF  Err=0.0D+00
 Gap=     0.189 Goal=     0.100 Shift=    0.000
 T=  645. Gap= 0.188 NK=4 IS=   61 IE=   87 IFin=   60
          NO(<0.9)=   0  NV(>0.1)=   0     60.00e < EF      0.00e >EF  Err=0.0D+00
 GapD=    0.189 DampG=1.000 DampE=1.000 DampFc=1.0000 IDamp=-1.
 RMSDP=8.20D-04 MaxDP=4.11D-02 DE=-1.30D-01 OVMax= 1.47D-02

 Cycle   5  Pass 1  IDiag  1:
 RMSU=  6.84D-04    CP:  5.54D-01  7.25D-01  1.98D+00  8.01D-01
 E= -695.823509330998     Delta-E=       -0.002555434952 Rises=F Damp=F
 DIIS: error= 4.48D-04 at cycle   5 NSaved=   5.
 NSaved= 5 IEnMin= 5 EnMin= -695.823509330998     IErMin= 5 ErrMin= 4.48D-04
 ErrMax= 4.48D-04  0.00D+00 EMaxC= 1.00D+00 BMatC= 2.19D-04 BMatP= 1.26D-02
 IDIUse=1 WtCom= 1.00D+00 WtEn= 0.00D+00
 Coeff-Com: -0.390D-02-0.950D-01 0.201D+00 0.221D+00 0.677D+00
 Coeff:     -0.390D-02-0.950D-01 0.201D+00 0.221D+00 0.677D+00
 Gap=     0.241 Goal=     0.100 Shift=    0.000
 Gap=     0.190 Goal=     0.100 Shift=    0.000
 RMSDP=2.91D-04 MaxDP=1.66D-02 DE=-2.56D-03 OVMax= 3.66D-03

 Cycle   6  Pass 1  IDiag  1:
 RMSU=  2.30D-04    CP:  5.52D-01  7.28D-01  2.01D+00  7.92D-01  9.65D-01
 E= -695.823588354615     Delta-E=       -0.000079023617 Rises=F Damp=F
 DIIS: error= 2.58D-04 at cycle   6 NSaved=   6.
 NSaved= 6 IEnMin= 6 EnMin= -695.823588354615     IErMin= 6 ErrMin= 2.58D-04
 ErrMax= 2.58D-04  0.00D+00 EMaxC= 1.00D+00 BMatC= 2.98D-05 BMatP= 2.19D-04
 IDIUse=1 WtCom= 1.00D+00 WtEn= 0.00D+00
 Coeff-Com:  0.270D-02 0.279D-01-0.708D-01-0.645D-01 0.106D+00 0.999D+00
 Coeff:      0.270D-02 0.279D-01-0.708D-01-0.645D-01 0.106D+00 0.999D+00
 Gap=     0.242 Goal=     0.100 Shift=    0.000
 Gap=     0.190 Goal=     0.100 Shift=    0.000
 RMSDP=1.16D-04 MaxDP=1.11D-02 DE=-7.90D-05 OVMax= 5.34D-03

 Cycle   7  Pass 1  IDiag  1:
 RMSU=  6.74D-05    CP:  5.52D-01  7.24D-01  2.01D+00  8.07D-01  1.07D+00
                    CP:  1.09D+00
 E= -695.823617913204     Delta-E=       -0.000029558589 Rises=F Damp=F
 DIIS: error= 1.19D-04 at cycle   7 NSaved=   7.
 NSaved= 7 IEnMin= 7 EnMin= -695.823617913204     IErMin= 7 ErrMin= 1.19D-04
 ErrMax= 1.19D-04  0.00D+00 EMaxC= 1.00D+00 BMatC= 8.04D-06 BMatP= 2.98D-05
 IDIUse=1 WtCom= 1.00D+00 WtEn= 0.00D+00
 Coeff-Com:  0.107D-02 0.202D-01-0.444D-01-0.532D-01-0.133D+00 0.189D+00
 Coeff-Com:  0.102D+01
 Coeff:      0.107D-02 0.202D-01-0.444D-01-0.532D-01-0.133D+00 0.189D+00
 Coeff:      0.102D+01
 Gap=     0.242 Goal=     0.100 Shift=    0.000
 Gap=     0.191 Goal=     0.100 Shift=    0.000
 RMSDP=5.56D-05 MaxDP=3.58D-03 DE=-2.96D-05 OVMax= 2.55D-03

 Cycle   8  Pass 1  IDiag  1:
 RMSU=  3.02D-05    CP:  5.52D-01  7.24D-01  2.01D+00  8.05D-01  1.09D+00
                    CP:  1.24D+00  1.38D+00
 E= -695.823625967794     Delta-E=       -0.000008054590 Rises=F Damp=F
 DIIS: error= 6.06D-05 at cycle   8 NSaved=   8.
 NSaved= 8 IEnMin= 8 EnMin= -695.823625967794     IErMin= 8 ErrMin= 6.06D-05
 ErrMax= 6.06D-05  0.00D+00 EMaxC= 1.00D+00 BMatC= 2.01D-06 BMatP= 8.04D-06
 IDIUse=1 WtCom= 1.00D+00 WtEn= 0.00D+00
 Coeff-Com: -0.164D-03-0.170D-03 0.179D-02-0.577D-02-0.755D-01-0.137D+00
 Coeff-Com:  0.364D+00 0.853D+00
 Coeff:     -0.164D-03-0.170D-03 0.179D-02-0.577D-02-0.755D-01-0.137D+00
 Coeff:      0.364D+00 0.853D+00
 Gap=     0.242 Goal=     0.100 Shift=    0.000
 Gap=     0.191 Goal=     0.100 Shift=    0.000
 RMSDP=3.26D-05 MaxDP=2.65D-03 DE=-8.05D-06 OVMax= 1.27D-03

 Cycle   9  Pass 1  IDiag  1:
 RMSU=  1.59D-05    CP:  5.52D-01  7.25D-01  2.01D+00  7.97D-01  1.08D+00
                    CP:  1.27D+00  1.61D+00  1.23D+00
 E= -695.823627491368     Delta-E=       -0.000001523574 Rises=F Damp=F
 DIIS: error= 2.48D-05 at cycle   9 NSaved=   9.
 NSaved= 9 IEnMin= 9 EnMin= -695.823627491368     IErMin= 9 ErrMin= 2.48D-05
 ErrMax= 2.48D-05  0.00D+00 EMaxC= 1.00D+00 BMatC= 2.78D-07 BMatP= 2.01D-06
 IDIUse=1 WtCom= 1.00D+00 WtEn= 0.00D+00
 Coeff-Com: -0.230D-03-0.414D-02 0.945D-02 0.780D-02 0.222D-02-0.673D-01
 Coeff-Com: -0.928D-01 0.217D+00 0.928D+00
 Coeff:     -0.230D-03-0.414D-02 0.945D-02 0.780D-02 0.222D-02-0.673D-01
 Coeff:     -0.928D-01 0.217D+00 0.928D+00
 Gap=     0.242 Goal=     0.100 Shift=    0.000
 Gap=     0.191 Goal=     0.100 Shift=    0.000
 RMSDP=1.45D-05 MaxDP=1.17D-03 DE=-1.52D-06 OVMax= 4.60D-04

 Cycle  10  Pass 1  IDiag  1:
 RMSU=  6.11D-06    CP:  5.52D-01  7.26D-01  2.01D+00  7.95D-01  1.08D+00
                    CP:  1.28D+00  1.68D+00  1.44D+00  1.17D+00
 E= -695.823627706828     Delta-E=       -0.000000215459 Rises=F Damp=F
 DIIS: error= 7.26D-06 at cycle  10 NSaved=  10.
 NSaved=10 IEnMin=10 EnMin= -695.823627706828     IErMin=10 ErrMin= 7.26D-06
 ErrMax= 7.26D-06  0.00D+00 EMaxC= 1.00D+00 BMatC= 7.04D-08 BMatP= 2.78D-07
 IDIUse=1 WtCom= 1.00D+00 WtEn= 0.00D+00
 Coeff-Com: -0.633D-04-0.185D-02 0.398D-02 0.408D-02 0.119D-01-0.983D-02
 Coeff-Com: -0.895D-01-0.346D-01 0.399D+00 0.717D+00
 Coeff:     -0.633D-04-0.185D-02 0.398D-02 0.408D-02 0.119D-01-0.983D-02
 Coeff:     -0.895D-01-0.346D-01 0.399D+00 0.717D+00
 Gap=     0.242 Goal=     0.100 Shift=    0.000
 Gap=     0.191 Goal=     0.100 Shift=    0.000
 RMSDP=4.04D-06 MaxDP=2.39D-04 DE=-2.15D-07 OVMax= 1.16D-04

 Cycle  11  Pass 1  IDiag  1:
 RMSU=  2.55D-06    CP:  5.52D-01  7.26D-01  2.01D+00  7.94D-01  1.08D+00
                    CP:  1.28D+00  1.70D+00  1.47D+00  1.26D+00  1.11D+00
 E= -695.823627742141     Delta-E=       -0.000000035313 Rises=F Damp=F
 DIIS: error= 4.40D-06 at cycle  11 NSaved=  11.
 NSaved=11 IEnMin=11 EnMin= -695.823627742141     IErMin=11 ErrMin= 4.40D-06
 ErrMax= 4.40D-06  0.00D+00 EMaxC= 1.00D+00 BMatC= 1.02D-08 BMatP= 7.04D-08
 IDIUse=1 WtCom= 1.00D+00 WtEn= 0.00D+00
 Coeff-Com:  0.520D-04 0.474D-03-0.120D-02-0.970D-03 0.292D-02 0.114D-01
 Coeff-Com:  0.159D-02-0.622D-01-0.102D+00 0.162D+00 0.988D+00
 Coeff:      0.520D-04 0.474D-03-0.120D-02-0.970D-03 0.292D-02 0.114D-01
 Coeff:      0.159D-02-0.622D-01-0.102D+00 0.162D+00 0.988D+00
 Gap=     0.242 Goal=     0.100 Shift=    0.000
 Gap=     0.191 Goal=     0.100 Shift=    0.000
 RMSDP=1.87D-06 MaxDP=1.97D-04 DE=-3.53D-08 OVMax= 9.72D-05

 Cycle  12  Pass 1  IDiag  1:
 RMSU=  9.19D-07    CP:  5.52D-01  7.26D-01  2.01D+00  7.94D-01  1.08D+00
                    CP:  1.28D+00  1.70D+00  1.49D+00  1.28D+00  1.25D+00
                    CP:  1.14D+00
 E= -695.823627750872     Delta-E=       -0.000000008731 Rises=F Damp=F
 DIIS: error= 1.64D-06 at cycle  12 NSaved=  12.
 NSaved=12 IEnMin=12 EnMin= -695.823627750872     IErMin=12 ErrMin= 1.64D-06
 ErrMax= 1.64D-06  0.00D+00 EMaxC= 1.00D+00 BMatC= 2.32D-09 BMatP= 1.02D-08
 IDIUse=1 WtCom= 1.00D+00 WtEn= 0.00D+00
 Coeff-Com:  0.287D-04 0.454D-03-0.104D-02-0.103D-02-0.578D-03 0.529D-02
 Coeff-Com:  0.159D-01-0.184D-01-0.100D+00-0.578D-01 0.357D+00 0.801D+00
 Coeff:      0.287D-04 0.454D-03-0.104D-02-0.103D-02-0.578D-03 0.529D-02
 Coeff:      0.159D-01-0.184D-01-0.100D+00-0.578D-01 0.357D+00 0.801D+00
 Gap=     0.242 Goal=     0.100 Shift=    0.000
 Gap=     0.191 Goal=     0.100 Shift=    0.000
 RMSDP=7.28D-07 MaxDP=5.73D-05 DE=-8.73D-09 OVMax= 2.88D-05

 Cycle  13  Pass 1  IDiag  1:
 RMSU=  4.87D-07    CP:  5.52D-01  7.26D-01  2.01D+00  7.94D-01  1.08D+00
                    CP:  1.28D+00  1.70D+00  1.49D+00  1.28D+00  1.29D+00
                    CP:  1.29D+00  1.16D+00
 E= -695.823627752445     Delta-E=       -0.000000001573 Rises=F Damp=F
 DIIS: error= 9.84D-07 at cycle  13 NSaved=  13.
 NSaved=13 IEnMin=13 EnMin= -695.823627752445     IErMin=13 ErrMin= 9.84D-07
 ErrMax= 9.84D-07  0.00D+00 EMaxC= 1.00D+00 BMatC= 7.55D-10 BMatP= 2.32D-09
 IDIUse=1 WtCom= 1.00D+00 WtEn= 0.00D+00
 Coeff-Com: -0.160D-05 0.804D-04-0.153D-03-0.223D-03-0.907D-03-0.622D-03
 Coeff-Com:  0.700D-02 0.727D-02-0.217D-01-0.664D-01-0.103D+00 0.388D+00
 Coeff-Com:  0.791D+00
 Coeff:     -0.160D-05 0.804D-04-0.153D-03-0.223D-03-0.907D-03-0.622D-03
 Coeff:      0.700D-02 0.727D-02-0.217D-01-0.664D-01-0.103D+00 0.388D+00
 Coeff:      0.791D+00
 Gap=     0.242 Goal=     0.100 Shift=    0.000
 Gap=     0.191 Goal=     0.100 Shift=    0.000
 RMSDP=4.27D-07 MaxDP=2.94D-05 DE=-1.57D-09 OVMax= 1.99D-05

 Cycle  14  Pass 1  IDiag  1:
 RMSU=  2.05D-07    CP:  5.52D-01  7.26D-01  2.01D+00  7.94D-01  1.08D+00
                    CP:  1.28D+00  1.70D+00  1.49D+00  1.28D+00  1.29D+00
                    CP:  1.30D+00  1.37D+00  1.30D+00
 E= -695.823627753003     Delta-E=       -0.000000000558 Rises=F Damp=F
 DIIS: error= 6.89D-07 at cycle  14 NSaved=  14.
 NSaved=14 IEnMin=14 EnMin= -695.823627753003     IErMin=14 ErrMin= 6.89D-07
 ErrMax= 6.89D-07  0.00D+00 EMaxC= 1.00D+00 BMatC= 7.35D-11 BMatP= 7.55D-10
 IDIUse=1 WtCom= 1.00D+00 WtEn= 0.00D+00
 Coeff-Com: -0.602D-05-0.699D-04 0.167D-03 0.152D-03-0.347D-04-0.105D-02
 Coeff-Com: -0.193D-02 0.513D-02 0.137D-01 0.842D-02-0.864D-01-0.793D-01
 Coeff-Com:  0.858D-01 0.106D+01
 Coeff:     -0.602D-05-0.699D-04 0.167D-03 0.152D-03-0.347D-04-0.105D-02
 Coeff:     -0.193D-02 0.513D-02 0.137D-01 0.842D-02-0.864D-01-0.793D-01
 Coeff:      0.858D-01 0.106D+01
 Gap=     0.242 Goal=     0.100 Shift=    0.000
 Gap=     0.191 Goal=     0.100 Shift=    0.000
 RMSDP=1.99D-07 MaxDP=1.27D-05 DE=-5.58D-10 OVMax= 1.57D-05

 Cycle  15  Pass 1  IDiag  1:
 RMSU=  8.37D-08    CP:  5.52D-01  7.26D-01  2.01D+00  7.94D-01  1.08D+00
                    CP:  1.28D+00  1.70D+00  1.49D+00  1.27D+00  1.29D+00
                    CP:  1.30D+00  1.45D+00  1.56D+00  1.28D+00
 E= -695.823627753094     Delta-E=       -0.000000000090 Rises=F Damp=F
 DIIS: error= 3.34D-07 at cycle  15 NSaved=  15.
 NSaved=15 IEnMin=15 EnMin= -695.823627753094     IErMin=15 ErrMin= 3.34D-07
 ErrMax= 3.34D-07  0.00D+00 EMaxC= 1.00D+00 BMatC= 4.13D-11 BMatP= 7.35D-11
 IDIUse=1 WtCom= 1.00D+00 WtEn= 0.00D+00
 Coeff-Com: -0.244D-05-0.420D-04 0.953D-04 0.103D-03 0.109D-03-0.374D-03
 Coeff-Com: -0.206D-02 0.153D-02 0.842D-02 0.163D-01-0.276D-01-0.987D-01
 Coeff-Com: -0.107D+00 0.519D+00 0.690D+00
 Coeff:     -0.244D-05-0.420D-04 0.953D-04 0.103D-03 0.109D-03-0.374D-03
 Coeff:     -0.206D-02 0.153D-02 0.842D-02 0.163D-01-0.276D-01-0.987D-01
 Coeff:     -0.107D+00 0.519D+00 0.690D+00
 Gap=     0.242 Goal=     0.100 Shift=    0.000
 Gap=     0.191 Goal=     0.100 Shift=    0.000
 RMSDP=8.98D-08 MaxDP=8.97D-06 DE=-9.03D-11 OVMax= 6.80D-06

 Cycle  16  Pass 1  IDiag  1:
 RMSU=  4.29D-08    CP:  5.52D-01  7.26D-01  2.01D+00  7.94D-01  1.08D+00
                    CP:  1.28D+00  1.70D+00  1.49D+00  1.27D+00  1.29D+00
                    CP:  1.30D+00  1.46D+00  1.65D+00  1.41D+00  1.37D+00
 E= -695.823627753141     Delta-E=       -0.000000000047 Rises=F Damp=F
 DIIS: error= 3.19D-07 at cycle  16 NSaved=  16.
 NSaved=16 IEnMin=16 EnMin= -695.823627753141     IErMin=16 ErrMin= 3.19D-07
 ErrMax= 3.19D-07  0.00D+00 EMaxC= 1.00D+00 BMatC= 8.30D-12 BMatP= 4.13D-11
 IDIUse=1 WtCom= 1.00D+00 WtEn= 0.00D+00
 Coeff-Com:  0.213D-05 0.227D-04-0.549D-04-0.448D-04 0.197D-04 0.373D-03
 Coeff-Com:  0.406D-03-0.137D-02-0.544D-02 0.239D-02 0.294D-01 0.212D-01
 Coeff-Com: -0.653D-01-0.298D+00-0.597D-01 0.138D+01
 Coeff:      0.213D-05 0.227D-04-0.549D-04-0.448D-04 0.197D-04 0.373D-03
 Coeff:      0.406D-03-0.137D-02-0.544D-02 0.239D-02 0.294D-01 0.212D-01
 Coeff:     -0.653D-01-0.298D+00-0.597D-01 0.138D+01
 Gap=     0.242 Goal=     0.100 Shift=    0.000
 Gap=     0.191 Goal=     0.100 Shift=    0.000
 RMSDP=7.73D-08 MaxDP=5.72D-06 DE=-4.68D-11 OVMax= 9.50D-06

 Cycle  17  Pass 1  IDiag  1:
 RMSU=  3.19D-08    CP:  5.52D-01  7.26D-01  2.01D+00  7.94D-01  1.08D+00
                    CP:  1.28D+00  1.70D+00  1.49D+00  1.27D+00  1.30D+00
                    CP:  1.30D+00  1.47D+00  1.69D+00  1.47D+00  1.79D+00
                    CP:  1.68D+00
 E= -695.823627753153     Delta-E=       -0.000000000013 Rises=F Damp=F
 DIIS: error= 1.16D-07 at cycle  17 NSaved=  17.
 NSaved=17 IEnMin=17 EnMin= -695.823627753153     IErMin=17 ErrMin= 1.16D-07
 ErrMax= 1.16D-07  0.00D+00 EMaxC= 1.00D+00 BMatC= 3.48D-12 BMatP= 8.30D-12
 IDIUse=1 WtCom= 1.00D+00 WtEn= 0.00D+00
 Coeff-Com:  0.893D-06 0.130D-04-0.302D-04-0.281D-04-0.126D-04 0.177D-03
 Coeff-Com:  0.441D-03-0.492D-03-0.341D-02-0.149D-02 0.108D-01 0.249D-01
 Coeff-Com:  0.653D-03-0.156D+00-0.235D+00 0.459D+00 0.900D+00
 Coeff:      0.893D-06 0.130D-04-0.302D-04-0.281D-04-0.126D-04 0.177D-03
 Coeff:      0.441D-03-0.492D-03-0.341D-02-0.149D-02 0.108D-01 0.249D-01
 Coeff:      0.653D-03-0.156D+00-0.235D+00 0.459D+00 0.900D+00
 Gap=     0.242 Goal=     0.100 Shift=    0.000
 Gap=     0.191 Goal=     0.100 Shift=    0.000
 RMSDP=4.37D-08 MaxDP=4.22D-06 DE=-1.27D-11 OVMax= 3.81D-06

 Cycle  18  Pass 1  IDiag  1:
 RMSU=  1.77D-08    CP:  5.52D-01  7.26D-01  2.01D+00  7.94D-01  1.08D+00
                    CP:  1.28D+00  1.70D+00  1.49D+00  1.27D+00  1.30D+00
                    CP:  1.30D+00  1.47D+00  1.73D+00  1.46D+00  1.92D+00
                    CP:  2.15D+00  1.24D+00
 E= -695.823627753194     Delta-E=       -0.000000000040 Rises=F Damp=F
 DIIS: error= 8.54D-08 at cycle  18 NSaved=  18.
 NSaved=18 IEnMin=18 EnMin= -695.823627753194     IErMin=18 ErrMin= 8.54D-08
 ErrMax= 8.54D-08  0.00D+00 EMaxC= 1.00D+00 BMatC= 9.94D-13 BMatP= 3.48D-12
 IDIUse=1 WtCom= 1.00D+00 WtEn= 0.00D+00
 Coeff-Com: -0.905D-06-0.739D-05 0.185D-04 0.141D-04-0.214D-04-0.135D-03
 Coeff-Com: -0.582D-04 0.680D-03 0.140D-02-0.121D-02-0.133D-01 0.271D-03
 Coeff-Com:  0.383D-01 0.119D+00-0.127D+00-0.522D+00 0.305D+00 0.120D+01
 Coeff:     -0.905D-06-0.739D-05 0.185D-04 0.141D-04-0.214D-04-0.135D-03
 Coeff:     -0.582D-04 0.680D-03 0.140D-02-0.121D-02-0.133D-01 0.271D-03
 Coeff:      0.383D-01 0.119D+00-0.127D+00-0.522D+00 0.305D+00 0.120D+01
 Gap=     0.242 Goal=     0.100 Shift=    0.000
 Gap=     0.191 Goal=     0.100 Shift=    0.000
 RMSDP=3.39D-08 MaxDP=2.67D-06 DE=-4.02D-11 OVMax= 3.84D-06

 Cycle  19  Pass 1  IDiag  1:
 RMSU=  1.02D-08    CP:  5.52D-01  7.26D-01  2.01D+00  7.94D-01  1.08D+00
                    CP:  1.28D+00  1.70D+00  1.49D+00  1.27D+00  1.30D+00
                    CP:  1.30D+00  1.47D+00  1.74D+00  1.45D+00  1.96D+00
                    CP:  2.46D+00  1.69D+00  1.81D+00
 E= -695.823627753162     Delta-E=        0.000000000032 Rises=F Damp=F
 DIIS: error= 1.50D-08 at cycle  19 NSaved=  19.
 NSaved=19 IEnMin=18 EnMin= -695.823627753194     IErMin=19 ErrMin= 1.50D-08
 ErrMax= 1.50D-08  0.00D+00 EMaxC= 1.00D+00 BMatC= 9.17D-14 BMatP= 9.94D-13
 IDIUse=1 WtCom= 1.00D+00 WtEn= 0.00D+00
 Coeff-Com: -0.135D-06-0.139D-05 0.345D-05 0.332D-05-0.351D-05-0.241D-04
 Coeff-Com: -0.498D-04 0.977D-04 0.426D-03 0.385D-03-0.204D-02-0.314D-02
 Coeff-Com:  0.132D-02 0.261D-01 0.188D-01-0.614D-01-0.170D+00 0.626D-01
 Coeff-Com:  0.113D+01
 Coeff:     -0.135D-06-0.139D-05 0.345D-05 0.332D-05-0.351D-05-0.241D-04
 Coeff:     -0.498D-04 0.977D-04 0.426D-03 0.385D-03-0.204D-02-0.314D-02
 Coeff:      0.132D-02 0.261D-01 0.188D-01-0.614D-01-0.170D+00 0.626D-01
 Coeff:      0.113D+01
 Gap=     0.242 Goal=     0.100 Shift=    0.000
 Gap=     0.191 Goal=     0.100 Shift=    0.000
 RMSDP=1.21D-08 MaxDP=9.54D-07 DE= 3.18D-11 OVMax= 9.81D-07

 Cycle  20  Pass 1  IDiag  1:
 RMSU=  3.26D-09    CP:  5.52D-01  7.26D-01  2.01D+00  7.94D-01  1.08D+00
                    CP:  1.28D+00  1.70D+00  1.49D+00  1.27D+00  1.30D+00
                    CP:  1.30D+00  1.47D+00  1.75D+00  1.45D+00  1.97D+00
                    CP:  2.55D+00  1.78D+00  2.17D+00  1.29D+00
 E= -695.823627753166     Delta-E=       -0.000000000004 Rises=F Damp=F
 DIIS: error= 3.55D-09 at cycle  20 NSaved=  20.
 NSaved=20 IEnMin=18 EnMin= -695.823627753194     IErMin=20 ErrMin= 3.55D-09
 ErrMax= 3.55D-09  0.00D+00 EMaxC= 1.00D+00 BMatC= 1.46D-14 BMatP= 9.17D-14
 IDIUse=1 WtCom= 1.00D+00 WtEn= 0.00D+00
 Coeff-Com:  0.496D-07 0.294D-06-0.746D-06-0.410D-06 0.102D-05 0.495D-05
 Coeff-Com: -0.950D-05-0.343D-04-0.462D-05 0.282D-03 0.646D-03-0.109D-02
 Coeff-Com: -0.359D-02-0.291D-02 0.199D-01 0.370D-01-0.102D+00-0.963D-01
 Coeff-Com:  0.402D+00 0.746D+00
 Coeff:      0.496D-07 0.294D-06-0.746D-06-0.410D-06 0.102D-05 0.495D-05
 Coeff:     -0.950D-05-0.343D-04-0.462D-05 0.282D-03 0.646D-03-0.109D-02
 Coeff:     -0.359D-02-0.291D-02 0.199D-01 0.370D-01-0.102D+00-0.963D-01
 Coeff:      0.402D+00 0.746D+00
 Gap=     0.242 Goal=     0.100 Shift=    0.000
 Gap=     0.191 Goal=     0.100 Shift=    0.000
 RMSDP=2.48D-09 MaxDP=1.79D-07 DE=-3.87D-12 OVMax= 1.19D-07

 Error on total polarization charges =  0.08063
 SCF Done:  E(UM062X) =  -695.823627753     A.U. after   20 cycles
            NFock= 20  Conv=0.25D-08     -V/T= 2.0088
 <Sx>= 0.0000 <Sy>= 0.0000 <Sz>= 0.5000 <S**2>= 0.7671 S= 0.5085
 <L.S>= 0.000000000000E+00
 KE= 6.897743626923D+02 PE=-3.903047334094D+03 EE= 1.382781322194D+03
 SMD-CDS (non-electrostatic) energy       (kcal/mol) =       7.45
 (included in total energy above)
 Annihilation of the first spin contaminant:
 S**2 before annihilation     0.7671,   after     0.7502
 Leave Link  502 at Wed Apr  9 18:05:44 2025, MaxMem=  8053063680 cpu:            8537.4 elap:             196.3
 (Enter /export/g16/l508.exe)
 QCSCF skips out because SCF is already converged.
 Leave Link  508 at Wed Apr  9 18:05:44 2025, MaxMem=  8053063680 cpu:               5.0 elap:               0.2
 (Enter /export/g16/l601.exe)
 Copying SCF densities to generalized density rwf, IOpCl= 1 IROHF=0.

 **********************************************************************

            Population analysis using the SCF density.

 **********************************************************************

 Orbital symmetries:
 Alpha Orbitals:
       Occupied  (A) (A) (A) (A) (A) (A) (A) (A) (A) (A) (A) (A)
                 (A) (A) (A) (A) (A) (A) (A) (A) (A) (A) (A) (A)
                 (A) (A) (A) (A) (A) (A) (A) (A) (A) (A) (A) (A)
                 (A) (A) (A) (A) (A) (A) (A) (A) (A) (A) (A) (A)
                 (A) (A) (A) (A) (A) (A) (A) (A) (A) (A) (A) (A)
                 (A)
       Virtual   (A) (A) (A) (A) (A) (A) (A) (A) (A) (A) (A) (A)
                 (A) (A) (A) (A) (A) (A) (A) (A) (A) (A) (A) (A)
                 (A) (A) (A) (A) (A) (A) (A) (A) (A) (A) (A) (A)
                 (A) (A) (A) (A) (A) (A) (A) (A) (A) (A) (A) (A)
                 (A) (A) (A) (A) (A) (A) (A) (A) (A) (A) (A) (A)
                 (A) (A) (A) (A) (A) (A) (A) (A) (A) (A) (A) (A)
                 (A) (A) (A) (A) (A) (A) (A) (A) (A) (A) (A) (A)
                 (A) (A) (A) (A) (A) (A) (A) (A) (A) (A) (A) (A)
                 (A) (A) (A) (A) (A) (A) (A) (A) (A) (A) (A) (A)
                 (A) (A) (A) (A) (A) (A) (A) (A) (A) (A) (A) (A)
                 (A) (A) (A) (A) (A) (A) (A) (A) (A) (A) (A) (A)
                 (A) (A) (A) (A) (A) (A) (A) (A) (A) (A) (A) (A)
                 (A) (A) (A) (A) (A) (A) (A) (A) (A) (A) (A) (A)
                 (A) (A) (A) (A) (A) (A) (A) (A) (A) (A) (A) (A)
                 (A) (A) (A) (A) (A) (A) (A) (A) (A) (A) (A) (A)
                 (A) (A) (A) (A) (A) (A) (A) (A) (A) (A) (A) (A)
                 (A) (A) (A) (A) (A) (A) (A) (A) (A) (A) (A) (A)
                 (A) (A) (A) (A) (A) (A) (A) (A) (A) (A) (A) (A)
                 (A) (A) (A) (A) (A) (A) (A) (A) (A) (A) (A) (A)
                 (A) (A) (A) (A) (A) (A) (A) (A) (A) (A) (A) (A)
                 (A) (A) (A) (A) (A) (A) (A) (A) (A) (A) (A) (A)
                 (A) (A) (A) (A) (A) (A) (A) (A) (A) (A) (A) (A)
                 (A) (A) (A) (A) (A) (A) (A) (A) (A) (A) (A) (A)
                 (A) (A) (A) (A) (A)
 Beta  Orbitals:
       Occupied  (A) (A) (A) (A) (A) (A) (A) (A) (A) (A) (A) (A)
                 (A) (A) (A) (A) (A) (A) (A) (A) (A) (A) (A) (A)
                 (A) (A) (A) (A) (A) (A) (A) (A) (A) (A) (A) (A)
                 (A) (A) (A) (A) (A) (A) (A) (A) (A) (A) (A) (A)
                 (A) (A) (A) (A) (A) (A) (A) (A) (A) (A) (A) (A)
       Virtual   (A) (A) (A) (A) (A) (A) (A) (A) (A) (A) (A) (A)
                 (A) (A) (A) (A) (A) (A) (A) (A) (A) (A) (A) (A)
                 (A) (A) (A) (A) (A) (A) (A) (A) (A) (A) (A) (A)
                 (A) (A) (A) (A) (A) (A) (A) (A) (A) (A) (A) (A)
                 (A) (A) (A) (A) (A) (A) (A) (A) (A) (A) (A) (A)
                 (A) (A) (A) (A) (A) (A) (A) (A) (A) (A) (A) (A)
                 (A) (A) (A) (A) (A) (A) (A) (A) (A) (A) (A) (A)
                 (A) (A) (A) (A) (A) (A) (A) (A) (A) (A) (A) (A)
                 (A) (A) (A) (A) (A) (A) (A) (A) (A) (A) (A) (A)
                 (A) (A) (A) (A) (A) (A) (A) (A) (A) (A) (A) (A)
                 (A) (A) (A) (A) (A) (A) (A) (A) (A) (A) (A) (A)
                 (A) (A) (A) (A) (A) (A) (A) (A) (A) (A) (A) (A)
                 (A) (A) (A) (A) (A) (A) (A) (A) (A) (A) (A) (A)
                 (A) (A) (A) (A) (A) (A) (A) (A) (A) (A) (A) (A)
                 (A) (A) (A) (A) (A) (A) (A) (A) (A) (A) (A) (A)
                 (A) (A) (A) (A) (A) (A) (A) (A) (A) (A) (A) (A)
                 (A) (A) (A) (A) (A) (A) (A) (A) (A) (A) (A) (A)
                 (A) (A) (A) (A) (A) (A) (A) (A) (A) (A) (A) (A)
                 (A) (A) (A) (A) (A) (A) (A) (A) (A) (A) (A) (A)
                 (A) (A) (A) (A) (A) (A) (A) (A) (A) (A) (A) (A)
                 (A) (A) (A) (A) (A) (A) (A) (A) (A) (A) (A) (A)
                 (A) (A) (A) (A) (A) (A) (A) (A) (A) (A) (A) (A)
                 (A) (A) (A) (A) (A) (A) (A) (A) (A) (A) (A) (A)
                 (A) (A) (A) (A) (A) (A)
 The electronic state is 2-A.
 Alpha  occ. eigenvalues --  -19.61182 -19.61002 -10.60152 -10.60033 -10.55767
 Alpha  occ. eigenvalues --  -10.55486 -10.55449 -10.54618 -10.53956 -10.52841
 Alpha  occ. eigenvalues --  -10.52500 -10.52500 -10.52411 -10.52259 -10.52014
 Alpha  occ. eigenvalues --  -10.52014  -1.14142  -1.11019  -0.94973  -0.91663
 Alpha  occ. eigenvalues --   -0.88206  -0.81338  -0.78463  -0.76825  -0.76635
 Alpha  occ. eigenvalues --   -0.76497  -0.76302  -0.68228  -0.66766  -0.61528
 Alpha  occ. eigenvalues --   -0.59316  -0.55737  -0.55244  -0.52283  -0.51203
 Alpha  occ. eigenvalues --   -0.50585  -0.49679  -0.49596  -0.49319  -0.49245
 Alpha  occ. eigenvalues --   -0.47889  -0.45424  -0.45200  -0.44562  -0.43844
 Alpha  occ. eigenvalues --   -0.43186  -0.42407  -0.42310  -0.41905  -0.41075
 Alpha  occ. eigenvalues --   -0.39792  -0.39320  -0.38538  -0.38081  -0.37765
 Alpha  occ. eigenvalues --   -0.36141  -0.36097  -0.33612  -0.29728  -0.27236
 Alpha  occ. eigenvalues --   -0.21737
 Alpha virt. eigenvalues --    0.02466   0.03298   0.03528   0.03811   0.04432
 Alpha virt. eigenvalues --    0.04673   0.04773   0.04904   0.05218   0.05301
 Alpha virt. eigenvalues --    0.07012   0.07065   0.07181   0.07331   0.07412
 Alpha virt. eigenvalues --    0.08082   0.08324   0.09607   0.09871   0.10056
 Alpha virt. eigenvalues --    0.11135   0.11297   0.11753   0.11825   0.12676
 Alpha virt. eigenvalues --    0.12887   0.13576   0.14326   0.15179   0.15637
 Alpha virt. eigenvalues --    0.16353   0.16619   0.16710   0.17468   0.17884
 Alpha virt. eigenvalues --    0.18798   0.18902   0.19365   0.20210   0.20235
 Alpha virt. eigenvalues --    0.20608   0.20866   0.21095   0.21672   0.22562
 Alpha virt. eigenvalues --    0.22778   0.22880   0.23154   0.23272   0.24450
 Alpha virt. eigenvalues --    0.24579   0.24906   0.25805   0.26165   0.26569
 Alpha virt. eigenvalues --    0.27106   0.27787   0.28252   0.28847   0.30040
 Alpha virt. eigenvalues --    0.30238   0.30561   0.30945   0.31151   0.32211
 Alpha virt. eigenvalues --    0.32472   0.32856   0.33055   0.33191   0.33366
 Alpha virt. eigenvalues --    0.33623   0.33741   0.34377   0.34598   0.34964
 Alpha virt. eigenvalues --    0.35167   0.35464   0.36203   0.36775   0.37111
 Alpha virt. eigenvalues --    0.38177   0.38540   0.39238   0.39491   0.40370
 Alpha virt. eigenvalues --    0.40810   0.42255   0.43099   0.43662   0.44512
 Alpha virt. eigenvalues --    0.45757   0.46588   0.48200   0.48983   0.51330
 Alpha virt. eigenvalues --    0.54335   0.55376   0.56848   0.57933   0.64618
 Alpha virt. eigenvalues --    0.69653   0.70453   0.71765   0.73444   0.73749
[...]
     3  C    0.000246   0.000046  -0.000246  -0.000033   0.000046   0.000246
     4  C   -0.000231  -0.000120   0.001102   0.003443  -0.000120  -0.000231
     5  C    0.000423  -0.000136  -0.001184   0.019606  -0.000136   0.000423
     6  C    0.000070  -0.000388  -0.000144  -0.002770  -0.000388   0.000070
     7  H    0.000002   0.000000   0.000000  -0.000210   0.000000   0.000002
     8  H    0.000000   0.000000   0.000000  -0.000007   0.000000   0.000000
     9  O   -0.000003   0.000000  -0.000002  -0.000070   0.000000  -0.000003
    10  O    0.000012  -0.000122  -0.000076  -0.000652  -0.000122   0.000012
    11  C   -0.001325  -0.001809   0.001897  -0.007101  -0.001809  -0.001325
    12  C    0.000858   0.004658  -0.001105  -0.012549  -0.002191  -0.000126
    13  H   -0.000137   0.000061  -0.000051  -0.000126  -0.000001   0.000000
    14  H    0.000061   0.000309   0.000003  -0.002191  -0.000050  -0.000001
    15  H   -0.000051   0.000003  -0.000782  -0.000500   0.000004   0.000001
    16  C   -0.000126  -0.002191  -0.000500   0.006647   0.004658   0.000858
    17  H   -0.000001  -0.000050   0.000004   0.004658   0.000309   0.000061
    18  H    0.000000  -0.000001   0.000001   0.000858   0.000061  -0.000137
    19  H    0.000001   0.000004  -0.000007  -0.001105   0.000003  -0.000051
    20  C   -0.000177   0.000118   0.000583   0.005207   0.000119  -0.000177
    21  H    0.000001  -0.000010  -0.000001  -0.000274  -0.000010   0.000001
    22  H   -0.000004   0.000022  -0.000002  -0.000803  -0.000003   0.000000
    23  H    0.000000  -0.000003   0.000001   0.001757   0.000022  -0.000004
    24  C    0.000002  -0.000003  -0.000003  -0.000794  -0.000003   0.000002
    25  C    0.000011  -0.000001   0.000000   0.000025  -0.000001   0.000011
    26  H    0.000000   0.000000   0.000000   0.000041   0.000000   0.000000
    27  H    0.000000   0.000000   0.000000   0.000000   0.000000   0.000000
    28  H    0.000000   0.000000   0.000000  -0.000073   0.000000   0.000000
    29  C   -0.000004  -0.000001   0.000001   0.001918   0.000001   0.000013
    30  H    0.000000   0.000000   0.000000  -0.000002   0.000000   0.000000
    31  H    0.000000   0.000000   0.000000   0.000004   0.000000   0.000000
    32  H    0.000000   0.000000   0.000000   0.000003   0.000000   0.000000
    33  C    0.000013   0.000001  -0.000002  -0.001398  -0.000001  -0.000004
    34  H    0.000000   0.000000   0.000000   0.000001   0.000000   0.000000
    35  H    0.000000   0.000000   0.000000  -0.000003   0.000000   0.000000
    36  H    0.000000   0.000000   0.000000  -0.000002   0.000000   0.000000
              19         20         21         22         23         24
     1  C    0.000025   0.002389   0.000034  -0.000125  -0.000125  -0.023110
     2  C   -0.000055  -0.002996  -0.000056   0.000012   0.000012   0.091414
     3  C   -0.000246  -0.002069  -0.000019   0.000109   0.000109   0.019761
     4  C    0.001102  -0.000830   0.000214  -0.000358  -0.000358   0.004611
     5  C   -0.001185   0.019703  -0.000147   0.001080   0.001080  -0.035384
     6  C   -0.000144  -0.007768  -0.000145  -0.000647  -0.000647   0.025135
     7  H    0.000000   0.000957  -0.000010   0.000060   0.000060   0.000266
     8  H    0.000000   0.000006   0.000000   0.000000   0.000000   0.001284
     9  O   -0.000002  -0.000206   0.000000   0.000000   0.000000   0.001096
    10  O   -0.000076  -0.004119  -0.000002  -0.000002  -0.000002   0.000495
    11  C    0.001897  -0.018391   0.000768  -0.001504  -0.001504  -0.008247
    12  C   -0.000500   0.005205  -0.000274   0.001757  -0.000803  -0.000793
    13  H    0.000001  -0.000177   0.000001  -0.000004   0.000000   0.000002
    14  H    0.000004   0.000118  -0.000010   0.000022  -0.000003  -0.000003
    15  H   -0.000007   0.000583  -0.000001  -0.000002   0.000001  -0.000003
    16  C   -0.001105   0.005207  -0.000274  -0.000803   0.001757  -0.000794
    17  H    0.000003   0.000119  -0.000010  -0.000003   0.000022  -0.000003
    18  H   -0.000051  -0.000177   0.000001   0.000000  -0.000004   0.000002
    19  H   -0.000782   0.000583  -0.000001   0.000001  -0.000002  -0.000003
    20  C    0.000583   0.002711   0.000018   0.000313   0.000313  -0.000484
    21  H   -0.000001   0.000018  -0.000319   0.000026   0.000026   0.000009
    22  H    0.000001   0.000313   0.000026   0.000341  -0.000064  -0.000112
    23  H   -0.000002   0.000313   0.000026  -0.000064   0.000341  -0.000112
    24  C   -0.000003  -0.000484   0.000009  -0.000112  -0.000112   0.031842
    25  C    0.000000   0.000845  -0.000007   0.000050   0.000051  -0.019740
    26  H    0.000000   0.000052   0.000000   0.000000   0.000000   0.002845
    27  H    0.000000  -0.000017   0.000000   0.000000   0.000000  -0.001924
    28  H    0.000000   0.000052   0.000000   0.000000   0.000000   0.002845
    29  C   -0.000002   0.000390   0.000000  -0.000021   0.000040  -0.026962
    30  H    0.000000  -0.000003   0.000000   0.000000   0.000000   0.003697
    31  H    0.000000   0.000001   0.000000   0.000000   0.000000  -0.003046
    32  H    0.000000   0.000015   0.000000   0.000000   0.000000   0.000550
    33  C    0.000001   0.000390   0.000000   0.000040  -0.000021  -0.026953
    34  H    0.000000  -0.000003   0.000000   0.000000   0.000000   0.003697
    35  H    0.000000   0.000015   0.000000   0.000000   0.000000   0.000550
    36  H    0.000000   0.000001   0.000000   0.000000   0.000000  -0.003046
              25         26         27         28         29         30
     1  C    0.007601  -0.000765   0.000154  -0.000765  -0.005251  -0.000106
     2  C   -0.021752   0.001560  -0.001060   0.001560  -0.007714  -0.000284
     3  C   -0.003168   0.000151  -0.000019   0.000151   0.005026   0.000080
     4  C    0.002412  -0.000162   0.000043  -0.000162  -0.000769  -0.000013
     5  C    0.007141  -0.000205   0.000017  -0.000205   0.005655  -0.000094
     6  C   -0.005289  -0.000681   0.000356  -0.000681  -0.014404   0.000353
     7  H   -0.000789   0.000093  -0.000010   0.000093  -0.000313   0.000000
     8  H    0.000233   0.000000   0.000000   0.000000  -0.000267   0.000001
     9  O   -0.000035   0.000000   0.000000   0.000000  -0.000512   0.000001
    10  O   -0.000087   0.000000   0.000000   0.000000  -0.000143   0.000000
    11  C    0.002404  -0.000122   0.000033  -0.000122  -0.003761   0.000015
    12  C    0.000025  -0.000073   0.000000   0.000041  -0.001398   0.000001
    13  H    0.000011   0.000000   0.000000   0.000000  -0.000004   0.000000
    14  H   -0.000001   0.000000   0.000000   0.000000  -0.000001   0.000000
    15  H    0.000000   0.000000   0.000000   0.000000   0.000001   0.000000
    16  C    0.000025   0.000041   0.000000  -0.000073   0.001918  -0.000002
    17  H   -0.000001   0.000000   0.000000   0.000000   0.000001   0.000000
    18  H    0.000011   0.000000   0.000000   0.000000   0.000013   0.000000
    19  H    0.000000   0.000000   0.000000   0.000000  -0.000002   0.000000
    20  C    0.000845   0.000052  -0.000017   0.000052   0.000390  -0.000003
    21  H   -0.000007   0.000000   0.000000   0.000000   0.000000   0.000000
    22  H    0.000050   0.000000   0.000000   0.000000  -0.000021   0.000000
    23  H    0.000051   0.000000   0.000000   0.000000   0.000040   0.000000
    24  C   -0.019740   0.002845  -0.001924   0.002845  -0.026962   0.003697
    25  C    0.003229  -0.001018   0.001331  -0.001018   0.009809  -0.000311
    26  H   -0.001018   0.000186   0.000016  -0.000055   0.000927  -0.000004
    27  H    0.001331   0.000016  -0.000489   0.000016   0.000581  -0.000017
    28  H   -0.001018  -0.000055   0.000016   0.000186  -0.002690   0.000004
    29  C    0.009809   0.000927   0.000581  -0.002690   0.103741  -0.006594
    30  H   -0.000311  -0.000004  -0.000017   0.000004  -0.006594   0.000453
    31  H    0.000107   0.000000   0.000001  -0.000002   0.002297  -0.000049
    32  H    0.000111  -0.000001   0.000000   0.000033  -0.000052  -0.000033
    33  C    0.009805  -0.002690   0.000581   0.000927  -0.075765   0.003298
    34  H   -0.000311   0.000004  -0.000017  -0.000004   0.003298  -0.000066
    35  H    0.000111   0.000033   0.000000  -0.000001  -0.000974   0.000001
    36  H    0.000107  -0.000002   0.000001   0.000000  -0.000302   0.000016
              31         32         33         34         35         36
     1  C    0.002264  -0.001463  -0.005250  -0.000107  -0.001463   0.002264
     2  C   -0.001886   0.002392  -0.007722  -0.000284   0.002391  -0.001886
     3  C   -0.000148   0.000126   0.005028   0.000080   0.000126  -0.000148
     4  C    0.000160  -0.000186  -0.000771  -0.000013  -0.000186   0.000160
     5  C    0.000178   0.000180   0.005657  -0.000094   0.000180   0.000178
     6  C    0.000307  -0.000943  -0.014406   0.000353  -0.000943   0.000307
     7  H    0.000000   0.000000  -0.000313   0.000000   0.000000   0.000000
     8  H    0.000014  -0.000002  -0.000267   0.000001  -0.000002   0.000014
     9  O   -0.000011  -0.000005  -0.000512   0.000001  -0.000005  -0.000011
    10  O   -0.000001   0.000000  -0.000143   0.000000   0.000000  -0.000001
    11  C    0.000002  -0.000082  -0.003760   0.000015  -0.000082   0.000002
    12  C   -0.000002  -0.000003   0.001918  -0.000002   0.000003   0.000004
    13  H    0.000000   0.000000   0.000013   0.000000   0.000000   0.000000
    14  H    0.000000   0.000000   0.000001   0.000000   0.000000   0.000000
    15  H    0.000000   0.000000  -0.000002   0.000000   0.000000   0.000000
    16  C    0.000004   0.000003  -0.001398   0.000001  -0.000003  -0.000002
    17  H    0.000000   0.000000  -0.000001   0.000000   0.000000   0.000000
    18  H    0.000000   0.000000  -0.000004   0.000000   0.000000   0.000000
    19  H    0.000000   0.000000   0.000001   0.000000   0.000000   0.000000
    20  C    0.000001   0.000015   0.000390  -0.000003   0.000015   0.000001
    21  H    0.000000   0.000000   0.000000   0.000000   0.000000   0.000000
    22  H    0.000000   0.000000   0.000040   0.000000   0.000000   0.000000
    23  H    0.000000   0.000000  -0.000021   0.000000   0.000000   0.000000
    24  C   -0.003046   0.000550  -0.026953   0.003697   0.000550  -0.003046
    25  C    0.000107   0.000111   0.009805  -0.000311   0.000111   0.000107
    26  H    0.000000  -0.000001  -0.002690   0.000004   0.000033  -0.000002
    27  H    0.000001   0.000000   0.000581  -0.000017   0.000000   0.000001
    28  H   -0.000002   0.000033   0.000927  -0.000004  -0.000001   0.000000
    29  C    0.002297  -0.000052  -0.075765   0.003298  -0.000974  -0.000302
    30  H   -0.000049  -0.000033   0.003298  -0.000066   0.000001   0.000016
    31  H   -0.000258   0.000031  -0.000302   0.000016  -0.000002  -0.000012
    32  H    0.000031  -0.000196  -0.000974   0.000001  -0.000001  -0.000002
    33  C   -0.000302  -0.000974   0.103742  -0.006594  -0.000052   0.002297
    34  H    0.000016   0.000001  -0.006594   0.000453  -0.000033  -0.000049
    35  H   -0.000002  -0.000001  -0.000052  -0.000033  -0.000196   0.000031
    36  H   -0.000012  -0.000002   0.002297  -0.000049   0.000031  -0.000258
 Mulliken charges and spin densities:
               1          2
     1  C   -0.038130   0.010251
     2  C   -0.776649   0.106628
     3  C    0.450837   0.149602
     4  C    0.392901   0.114006
     5  C   -0.187201   0.069751
     6  C   -0.545774   0.081102
     7  H    0.217565  -0.005912
     8  H    0.232460  -0.001164
     9  O   -0.789176   0.208974
    10  O   -0.728059   0.244509
    11  C   -0.283254  -0.004159
    12  C   -0.572767   0.011261
    13  H    0.236003  -0.000073
    14  H    0.227814   0.000256
    15  H    0.247823  -0.000543
    16  C   -0.572767   0.011261
    17  H    0.227814   0.000256
    18  H    0.236003  -0.000073
    19  H    0.247823  -0.000543
    20  C   -0.443939   0.002747
    21  H    0.233534  -0.000176
    22  H    0.238015   0.000164
    23  H    0.238016   0.000164
    24  C   -0.039043   0.039383
    25  C   -0.492770  -0.008109
    26  H    0.239189   0.000131
    27  H    0.234115  -0.000426
    28  H    0.239190   0.000131
    29  C   -0.546921  -0.014204
    30  H    0.231865   0.000344
    31  H    0.239187  -0.000337
    32  H    0.241084  -0.000503
    33  C   -0.546923  -0.014204
    34  H    0.231865   0.000344
    35  H    0.241084  -0.000503
    36  H    0.239187  -0.000337
 Sum of Mulliken charges =  -1.00000   1.00000
 Mulliken charges and spin densities with hydrogens summed into heavy atoms:
               1          2
     1  C    0.194330   0.009088
     2  C   -0.776649   0.106628
     3  C    0.450837   0.149602
     4  C    0.392901   0.114006
     5  C   -0.187201   0.069751
     6  C   -0.328209   0.075190
     9  O   -0.789176   0.208974
    10  O   -0.728059   0.244509
    11  C   -0.283254  -0.004159
    12  C    0.138873   0.010902
    16  C    0.138873   0.010902
    20  C    0.265626   0.002898
    24  C   -0.039043   0.039383
    25  C    0.219724  -0.008272
    29  C    0.165215  -0.014700
    33  C    0.165213  -0.014701
 Electronic spatial extent (au):  <R**2>=           4149.8821
 Charge=             -1.0000 electrons
 Dipole moment (field-independent basis, Debye):
    X=              6.7647    Y=            -15.3392    Z=              0.0000  Tot=             16.7646
 Quadrupole moment (field-independent basis, Debye-Ang):
   XX=           -113.3886   YY=           -147.6269   ZZ=           -104.7533
   XY=             14.0018   XZ=              0.0000   YZ=              0.0001
 Traceless Quadrupole moment (field-independent basis, Debye-Ang):
   XX=              8.5344   YY=            -25.7040   ZZ=             17.1696
   XY=             14.0018   XZ=              0.0000   YZ=              0.0001
 Octapole moment (field-independent basis, Debye-Ang**2):
  XXX=             49.0970  YYY=           -153.2273  ZZZ=              0.0000  XYY=             32.0364
  XXY=            -37.3702  XXZ=              0.0001  XZZ=             -1.4418  YZZ=             -0.7721
  YYZ=              0.0003  XYZ=              0.0000
 Hexadecapole moment (field-independent basis, Debye-Ang**3):
 XXXX=          -3686.4169 YYYY=          -2246.6805 ZZZZ=           -491.8647 XXXY=             75.9288
 XXXZ=             -0.0002 YYYX=             73.6595 YYYZ=              0.0018 ZZZX=             -0.0003
 ZZZY=              0.0011 XXYY=           -939.9781 XXZZ=           -718.6684 YYZZ=           -365.2671
 XXYZ=              0.0004 YYXZ=             -0.0002 ZZXY=             -8.2386
 N-N= 1.136466700476D+03 E-N=-3.906617577399D+03  KE= 6.897355265295D+02
 Leave Link  601 at Wed Apr  9 19:23:22 2025, MaxMem=  8053063680 cpu:              32.1 elap:               0.9
 (Enter /export/g16/l9999.exe)
 Electronic transition elements 
                 1             2             3             4             5 
      1  -0.695751D+03 -0.695749D+03 -0.695721D+03 -0.695681D+03 -0.695669D+03
      2  -0.167166D-04  0.526193D+00  0.000000D+00  0.175691D+00  0.697089D+00
      3   0.152755D-04 -0.503449D+00 -0.127453D-05  0.237791D+00 -0.342958D+00
      4  -0.139656D-01 -0.153755D-05  0.815559D-02  0.163159D-05  0.143519D-05
      5   0.140699D-05 -0.457758D-01  0.000000D+00 -0.259054D-01 -0.107034D+00
      6  -0.129059D-05  0.433006D-01  0.000000D+00 -0.398354D-01  0.532157D-01
      7  -0.240419D-02  0.000000D+00 -0.686729D-03  0.000000D+00  0.000000D+00
      8   0.251652D+00  0.775264D-05  0.298342D+00  0.000000D+00  0.202270D-05
      9  -0.147174D-01  0.000000D+00  0.561858D+00  0.000000D+00 -0.117458D-05
     10   0.154172D-04 -0.556436D+00 -0.119482D-05  0.953830D-02 -0.139965D+00
     11   0.821060D-05 -0.281704D+00  0.000000D+00  0.191376D+00  0.427844D-01
     12  -0.884494D-05  0.303912D+00  0.136979D-05 -0.151145D+00  0.175202D+00
     13   0.000000D+00 -0.262713D-01  0.000000D+00  0.619513D-01 -0.705046D-02
     14   0.334885D-05 -0.106680D+00  0.000000D+00 -0.172267D+00 -0.164670D-03
     15   0.269342D-02  0.000000D+00 -0.168257D-01  0.000000D+00  0.000000D+00
     16   0.926788D-02  0.000000D+00  0.138385D-01  0.000000D+00  0.000000D+00
                 6             7             8             9            10 
      1  -0.695658D+03 -0.695658D+03 -0.695647D+03 -0.695638D+03 -0.695631D+03
      2  -0.799820D+00 -0.349631D-04  0.101090D+01  0.000000D+00 -0.340947D-05
      3  -0.108429D+01 -0.484976D-04 -0.448718D+00  0.000000D+00 -0.109975D-04
      4  -0.284145D-05  0.786008D-02  0.000000D+00  0.113909D+00  0.436382D-02
      5   0.131787D+00  0.570616D-05 -0.181456D+00  0.000000D+00  0.000000D+00
      6   0.178617D+00  0.809932D-05  0.785611D-01  0.000000D+00  0.204574D-05
      7   0.000000D+00  0.104078D-01  0.000000D+00 -0.211875D-01  0.258136D-02
      8  -0.717170D-05  0.134068D+00 -0.207399D-05  0.118647D+00  0.397576D+00
      9   0.413786D-05 -0.811764D-01  0.000000D+00 -0.837833D-01 -0.257006D+00
     10  -0.163660D+00 -0.381750D-05  0.219039D+00  0.000000D+00 -0.195528D-04
     11  -0.311962D+00 -0.187280D-04 -0.336090D+00  0.100036D-05  0.905550D-05
     12   0.837452D+00  0.414625D-04  0.626044D+00  0.000000D+00 -0.166773D-04
     13  -0.974161D-01 -0.510845D-05  0.872637D-02  0.000000D+00 -0.267628D-05
     14   0.159253D+00  0.465488D-05 -0.364611D+00  0.000000D+00  0.244581D-04
     15  -0.103625D-05  0.119831D-01  0.000000D+00  0.569727D-01  0.211921D+00
     16  -0.129669D-05  0.666338D-01  0.000000D+00  0.422685D-01  0.260152D+00
 1\1\GINC-C06\SP\UM062X TD-FC\6-31+G(d)\C14H20O2(1-,2)\TALIPOVM\09-Apr-
 2025\0\\#p M062X/6-31+G(d) td(nstates=10) int(grid=ultrafine) scf(xqc,
 fermi,maxcyc=200) scrf(check) guess(read) geom(allcheck)\\\-1,2\C,0,-1
 .2806602031,1.4563129347,0.0000022212\C,0,-1.3700475477,0.0823257254,0
 .0000004501\C,0,-0.0233575214,2.1324142576,0.0000041496\C,0,1.22403081
 74,1.3202631848,0.0000061531\C,0,1.1032588296,-0.1274754027,0.00000175
 34\C,0,-0.1593027538,-0.6828950802,0.0000000459\H,0,-0.2491501883,-1.7
 612319633,-0.0000026536\H,0,-2.1717728357,2.0813626632,0.0000025799\O,
 0,0.0624112709,3.4042125079,0.0000054107\O,0,2.3356864208,1.9325897342
 ,0.0000028644\C,0,2.3654716994,-0.9971654737,-0.0000011069\C,0,3.20336
 81067,-0.7161055578,-1.2607823716\H,0,2.626468217,-0.9486172377,-2.163
 9604233\H,0,4.0979208603,-1.3509475306,-1.2592055317\H,0,3.5225989987,
 0.3268320474,-1.3145472712\C,0,3.2033711191,-0.7161091021,1.2607789377
 \H,0,4.0979242764,-1.3509504984,1.2591978137\H,0,2.6264736474,-0.94862
 39631,2.1639577138\H,0,3.5226014385,0.3268285586,1.3145462301\C,0,2.03
 39591632,-2.4948310045,-0.0000028946\H,0,2.9694724144,-3.065239591,-0.
 0000060798\H,0,1.463862279,-2.7888082957,-0.8888443772\H,0,1.463866486
 1,-2.7888114747,0.8888402244\C,0,-2.7469480736,-0.593488566,-0.0000011
 484\C,0,-2.6576262756,-2.123417754,0.0000087834\H,0,-2.1403545201,-2.5
 024233371,-0.888763466\H,0,-3.6705971292,-2.5408171555,0.0000032637\H,
 0,-2.1403687802,-2.5024127677,0.8887937827\C,0,-3.5274400414,-0.159790
 2634,1.2524553591\H,0,-4.513203388,-0.6400590645,1.2642562431\H,0,-3.6
 782493287,0.9243304339,1.2760846314\H,0,-2.9938008165,-0.4512733077,2.
 164636311\C,0,-3.5274301357,-0.1598060512,-1.2524693887\H,0,-4.5131923
 323,-0.6400771472,-1.264273318\H,0,-2.993782413,-0.4512984273,-2.16464
 23707\H,0,-3.6782417606,0.9243139693,-1.2761125207\\Version=ES64L-G16R
 evA.03\State=2-A\HF=-695.8243379\S2=0.767168\S2-1=0.\S2A=0.750168\RMSD
 =4.580e-09\PG=C01 [X(C14H20O2)]\\@


 I FIND THAT THE THREE TRULY GREAT TIMES FOR THINKING THOUGHTS
 ARE WHEN I AM STANDING IN THE SHOWER, SITTING ON THE JOHN, OR WALKING.

                                    -- COLIN FLETCHER
 Job cpu time:       0 days 14 hours  5 minutes 46.0 seconds.
 Elapsed time:       0 days  0 hours 19 minutes 18.4 seconds.
 File lengths (MBytes):  RWF=   1117 Int=      0 D2E=      0 Chk=     77 Scr=      1
 Normal termination of Gaussian 16 at Wed Apr  9 19:23:23 2025.
