 Entering Gaussian System, Link 0=/export/g16/g16
 Input=SQ-c2.com
 Output=SQ-c2.log
 AtFile(1): SQ-c2.xyz
            C         -1.27060        1.45244        0.00000
            C         -1.37053        0.05415        0.00001
            C         -0.02729        2.04099       -0.00000
            C          1.20796        1.26297        0.00000
            C          1.09562       -0.18679        0.00000
            C         -0.17575       -0.71981        0.00000
            H         -0.27990       -1.79055        0.00000
            H         -2.14729        2.08459       -0.00000
            O          0.11604        3.37352       -0.00001
            H          1.07851        3.54222        0.00000
            O          2.28295        1.91673        0.00001
            C          2.35830       -1.05401       -0.00000
            C          3.19610       -0.75536       -1.26363
            H          2.62609       -0.98049       -2.16859
            H          4.09145       -1.38230       -1.26666
            H          3.50673        0.28694       -1.30104
            C          3.19610       -0.75538        1.26363
            H          4.09145       -1.38231        1.26665
            H          2.62610       -0.98052        2.16859
            H          3.50673        0.28693        1.30105
            C          2.02874       -2.55560       -0.00001
            H          2.96108       -3.12376       -0.00003
            H          1.46326       -2.85269       -0.88604
            H          1.46328       -2.85270        0.88604
            C         -2.75854       -0.59588        0.00000
            C         -2.70139       -2.13163        0.00001
            H         -2.19722       -2.52332       -0.88597
            H         -3.71877       -2.52734        0.00000
            H         -2.19723       -2.52331        0.88599
            C         -3.52979       -0.14331        1.25994
            H         -4.52241       -0.59967        1.26875
            H         -3.66035        0.93915        1.29281
            H         -3.00777       -0.44959        2.16924
            C         -3.52977       -0.14332       -1.25995
            H         -4.52239       -0.59968       -1.26877
            H         -3.00774       -0.44960       -2.16924
            H         -3.66033        0.93914       -1.29282
 Initial command:
 /export/g16/l1.exe "/tmp/talipovm/21605/Gau-1649733.inp" -scrdir="/tmp/talipovm/21605/"
 Entering Link 1 = /export/g16/l1.exe PID=   1649735.
  
 Copyright (c) 1988,1990,1992,1993,1995,1998,2003,2009,2016,
            Gaussian, Inc.  All Rights Reserved.
  
 This is part of the Gaussian(R) 16 program.  It is based on
 the Gaussian(R) 09 system (copyright 2009, Gaussian, Inc.),
 the Gaussian(R) 03 system (copyright 2003, Gaussian, Inc.),
 the Gaussian(R) 98 system (copyright 1998, Gaussian, Inc.),
 the Gaussian(R) 94 system (copyright 1995, Gaussian, Inc.),
 the Gaussian 92(TM) system (copyright 1992, Gaussian, Inc.),
 the Gaussian 90(TM) system (copyright 1990, Gaussian, Inc.),
 the Gaussian 88(TM) system (copyright 1988, Gaussian, Inc.),
 the Gaussian 86(TM) system (copyright 1986, Carnegie Mellon
 University), and the Gaussian 82(TM) system (copyright 1983,
 Carnegie Mellon University). Gaussian is a federally registered
 trademark of Gaussian, Inc.
  
 This software contains proprietary and confidential information,
 including trade secrets, belonging to Gaussian, Inc.
  
 This software is provided under written license and may be
 used, copied, transmitted, or stored only in accord with that
 written license.
  
 The following legend is applicable only to US Government
 contracts under FAR:
  
                    RESTRICTED RIGHTS LEGEND
  
 Use, reproduction and disclosure by the US Government is
 subject to restrictions as set forth in subparagraphs (a)
 and (c) of the Commercial Computer Software - Restricted
 Rights clause in FAR 52.227-19.
  
 Gaussian, Inc.
 340 Quinnipiac St., Bldg. 40, Wallingford CT 06492
  
  
 ---------------------------------------------------------------
 Warning -- This program may not be used in any manner that
 competes with the business of Gaussian, Inc. or will provide
 assistance to any competitor of Gaussian, Inc.  The licensee
 of this program is prohibited from giving any competitor of
 Gaussian, Inc. access to this program.  By using this program,
 the user acknowledges that Gaussian, Inc. is engaged in the
 business of creating and licensing software in the field of
 computational chemistry and represents and warrants to the
 licensee that it is not a competitor of Gaussian, Inc. and that
 it will not use this program in any manner prohibited above.
 ---------------------------------------------------------------
  

 Cite this work as:
 Gaussian 16, Revision A.03,
 M. J. Frisch, G. W. Trucks, H. B. Schlegel, G. E. Scuseria, 
 M. A. Robb, J. R. Cheeseman, G. Scalmani, V. Barone, 
 G. A. Petersson, H. Nakatsuji, X. Li, M. Caricato, A. V. Marenich, 
 J. Bloino, B. G. Janesko, R. Gomperts, B. Mennucci, H. P. Hratchian, 
 J. V. Ortiz, A. F. Izmaylov, J. L. Sonnenberg, D. Williams-Young, 
 F. Ding, F. Lipparini, F. Egidi, J. Goings, B. Peng, A. Petrone, 
 T. Henderson, D. Ranasinghe, V. G. Zakrzewski, J. Gao, N. Rega, 
 G. Zheng, W. Liang, M. Hada, M. Ehara, K. Toyota, R. Fukuda, 
 J. Hasegawa, M. Ishida, T. Nakajima, Y. Honda, O. Kitao, H. Nakai, 
 T. Vreven, K. Throssell, J. A. Montgomery, Jr., J. E. Peralta, 
 F. Ogliaro, M. J. Bearpark, J. J. Heyd, E. N. Brothers, K. N. Kudin, 
 V. N. Staroverov, T. A. Keith, R. Kobayashi, J. Normand, 
 K. Raghavachari, A. P. Rendell, J. C. Burant, S. S. Iyengar, 
 J. Tomasi, M. Cossi, J. M. Millam, M. Klene, C. Adamo, R. Cammi, 
 J. W. Ochterski, R. L. Martin, K. Morokuma, O. Farkas, 
 J. B. Foresman, and D. J. Fox, Gaussian, Inc., Wallingford CT, 2016.
 
 ******************************************
 Gaussian 16:  ES64L-G16RevA.03 25-Dec-2016
                 9-Apr-2025 
 ******************************************
 %nproc=44
 Will use up to   44 processors via shared memory.
 %mem=60Gb
 %chk=SQ-c2.chk
 ----------------------------------------------------------------------
 #p M062X/6-31+G(d) opt(tight) int(grid=ultrafine) scf(xqc,fermi,maxcyc
 =200) scrf(smd,solvent=water)
 ----------------------------------------------------------------------
 1/7=10,18=20,19=15,26=6,38=1/1,3;
 2/9=110,12=2,17=6,18=5,40=1/2;
 3/5=1,6=6,7=11,11=2,25=1,30=1,70=32201,71=1,72=1,74=-55,75=-5/1,2,3;
 4//1;
 5/5=2,7=200,8=3,13=1,22=13,38=5,53=1/2,8;
 6/7=2,8=2,9=2,10=2,28=1/1;
 7//1,2,3,16;
 1/7=10,18=20,19=15,26=6/3(2);
 2/9=110/2;
 99//99;
 2/9=110/2;
 3/5=1,6=6,7=11,11=2,25=1,30=1,70=32205,71=1,72=1,74=-55,75=-5/1,2,3;
 4/5=5,16=3,69=1/1;
 5/5=2,7=200,8=3,13=1,22=13,38=5,53=1/2,8;
 7//1,2,3,16;
 1/7=10,18=20,19=15,26=6/3(-5);
 2/9=110/2;
 6/7=2,8=2,9=2,10=2,19=2,28=1/1;
 99/9=1/99;
 Leave Link    1 at Wed Apr  9 18:02:22 2025, MaxMem=  8053063680 cpu:               5.3 elap:               0.1
 (Enter /export/g16/l101.exe)


 Symbolic Z-matrix:
 Charge =  0 Multiplicity = 2
 C                    -1.2706    1.45244   0. 
 C                    -1.37053   0.05415   0.00001 
 C                    -0.02729   2.04099   0. 
 C                     1.20796   1.26297   0. 
 C                     1.09562  -0.18679   0. 
 C                    -0.17575  -0.71981   0. 
 H                    -0.2799   -1.79055   0. 
 H                    -2.14729   2.08459   0. 
 O                     0.11604   3.37352  -0.00001 
 H                     1.07851   3.54222   0. 
 O                     2.28295   1.91673   0.00001 
 C                     2.3583   -1.05401   0. 
 C                     3.1961   -0.75536  -1.26363 
 H                     2.62609  -0.98049  -2.16859 
 H                     4.09145  -1.3823   -1.26666 
 H                     3.50673   0.28694  -1.30104 
 C                     3.1961   -0.75538   1.26363 
 H                     4.09145  -1.38231   1.26665 
 H                     2.6261   -0.98052   2.16859 
 H                     3.50673   0.28693   1.30105 
 C                     2.02874  -2.5556   -0.00001 
 H                     2.96108  -3.12376  -0.00003 
 H                     1.46326  -2.85269  -0.88604 
 H                     1.46328  -2.8527    0.88604 
 C                    -2.75854  -0.59588   0. 
 C                    -2.70139  -2.13163   0.00001 
 H                    -2.19722  -2.52332  -0.88597 
 H                    -3.71877  -2.52734   0. 
 H                    -2.19723  -2.52331   0.88599 
 C                    -3.52979  -0.14331   1.25994 
 H                    -4.52241  -0.59967   1.26875 
 H                    -3.66035   0.93915   1.29281 
 H                    -3.00777  -0.44959   2.16924 
 C                    -3.52977  -0.14332  -1.25995 
 H                    -4.52239  -0.59968  -1.26877 
 H                    -3.00774  -0.4496   -2.16924 
 H                    -3.66033   0.93914  -1.29282 
 
 ITRead=  0  0  0  0  0  0  0  0  0  0  0  0  0  0  0  0  0  0  0  0
 ITRead=  0  0  0  0  0  0  0  0  0  0  0  0  0  0  0  0  0
 MicOpt= -1 -1 -1 -1 -1 -1 -1 -1 -1 -1 -1 -1 -1 -1 -1 -1 -1 -1 -1 -1
 MicOpt= -1 -1 -1 -1 -1 -1 -1 -1 -1 -1 -1 -1 -1 -1 -1 -1 -1
 NAtoms=     37 NQM=       37 NQMF=       0 NMMI=      0 NMMIF=      0
                NMic=       0 NMicF=      0.
                    Isotopes and Nuclear Properties:
 (Nuclear quadrupole moments (NQMom) in fm**2, nuclear magnetic moments (NMagM)
  in nuclear magnetons)

  Atom         1           2           3           4           5           6           7           8           9          10
 IAtWgt=          12          12          12          12          12          12           1           1          16           1
 AtmWgt=  12.0000000  12.0000000  12.0000000  12.0000000  12.0000000  12.0000000   1.0078250   1.0078250  15.9949146   1.0078250
 NucSpn=           0           0           0           0           0           0           1           1           0           1
 AtZEff=   0.0000000   0.0000000   0.0000000   0.0000000   0.0000000   0.0000000   0.0000000   0.0000000   0.0000000   0.0000000
 NQMom=    0.0000000   0.0000000   0.0000000   0.0000000   0.0000000   0.0000000   0.0000000   0.0000000   0.0000000   0.0000000
 NMagM=    0.0000000   0.0000000   0.0000000   0.0000000   0.0000000   0.0000000   2.7928460   2.7928460   0.0000000   2.7928460
 AtZNuc=   6.0000000   6.0000000   6.0000000   6.0000000   6.0000000   6.0000000   1.0000000   1.0000000   8.0000000   1.0000000

  Atom        11          12          13          14          15          16          17          18          19          20
 IAtWgt=          16          12          12           1           1           1          12           1           1           1
 AtmWgt=  15.9949146  12.0000000  12.0000000   1.0078250   1.0078250   1.0078250  12.0000000   1.0078250   1.0078250   1.0078250
 NucSpn=           0           0           0           1           1           1           0           1           1           1
 AtZEff=   0.0000000   0.0000000   0.0000000   0.0000000   0.0000000   0.0000000   0.0000000   0.0000000   0.0000000   0.0000000
 NQMom=    0.0000000   0.0000000   0.0000000   0.0000000   0.0000000   0.0000000   0.0000000   0.0000000   0.0000000   0.0000000
 NMagM=    0.0000000   0.0000000   0.0000000   2.7928460   2.7928460   2.7928460   0.0000000   2.7928460   2.7928460   2.7928460
 AtZNuc=   8.0000000   6.0000000   6.0000000   1.0000000   1.0000000   1.0000000   6.0000000   1.0000000   1.0000000   1.0000000

  Atom        21          22          23          24          25          26          27          28          29          30
 IAtWgt=          12           1           1           1          12          12           1           1           1          12
 AtmWgt=  12.0000000   1.0078250   1.0078250   1.0078250  12.0000000  12.0000000   1.0078250   1.0078250   1.0078250  12.0000000
 NucSpn=           0           1           1           1           0           0           1           1           1           0
 AtZEff=   0.0000000   0.0000000   0.0000000   0.0000000   0.0000000   0.0000000   0.0000000   0.0000000   0.0000000   0.0000000
 NQMom=    0.0000000   0.0000000   0.0000000   0.0000000   0.0000000   0.0000000   0.0000000   0.0000000   0.0000000   0.0000000
 NMagM=    0.0000000   2.7928460   2.7928460   2.7928460   0.0000000   0.0000000   2.7928460   2.7928460   2.7928460   0.0000000
 AtZNuc=   6.0000000   1.0000000   1.0000000   1.0000000   6.0000000   6.0000000   1.0000000   1.0000000   1.0000000   6.0000000

  Atom        31          32          33          34          35          36          37
 IAtWgt=           1           1           1          12           1           1           1
 AtmWgt=   1.0078250   1.0078250   1.0078250  12.0000000   1.0078250   1.0078250   1.0078250
 NucSpn=           1           1           1           0           1           1           1
 AtZEff=   0.0000000   0.0000000   0.0000000   0.0000000   0.0000000   0.0000000   0.0000000
 NQMom=    0.0000000   0.0000000   0.0000000   0.0000000   0.0000000   0.0000000   0.0000000
 NMagM=    2.7928460   2.7928460   2.7928460   0.0000000   2.7928460   2.7928460   2.7928460
 AtZNuc=   1.0000000   1.0000000   1.0000000   6.0000000   1.0000000   1.0000000   1.0000000
 Leave Link  101 at Wed Apr  9 18:02:23 2025, MaxMem=  8053063680 cpu:              44.3 elap:               1.2
 (Enter /export/g16/l103.exe)

 GradGradGradGradGradGradGradGradGradGradGradGradGradGradGradGradGradGrad
 Berny optimization.
 Initialization pass.
                           ----------------------------
                           !    Initial Parameters    !
                           ! (Angstroms and Degrees)  !
 --------------------------                            --------------------------
 ! Name  Definition              Value          Derivative Info.                !
 --------------------------------------------------------------------------------
 ! R1    R(1,2)                  1.4019         estimate D2E/DX2                !
 ! R2    R(1,3)                  1.3756         estimate D2E/DX2                !
 ! R3    R(1,8)                  1.0808         estimate D2E/DX2                !
 ! R4    R(2,6)                  1.4236         estimate D2E/DX2                !
 ! R5    R(2,25)                 1.5327         estimate D2E/DX2                !
 ! R6    R(3,4)                  1.4598         estimate D2E/DX2                !
 ! R7    R(3,9)                  1.3402         estimate D2E/DX2                !
 ! R8    R(4,5)                  1.4541         estimate D2E/DX2                !
 ! R9    R(4,11)                 1.2582         estimate D2E/DX2                !
 ! R10   R(5,6)                  1.3786         estimate D2E/DX2                !
 ! R11   R(5,12)                 1.5318         estimate D2E/DX2                !
 ! R12   R(6,7)                  1.0758         estimate D2E/DX2                !
 ! R13   R(9,10)                 0.9771         estimate D2E/DX2                !
 ! R14   R(12,13)                1.5453         estimate D2E/DX2                !
 ! R15   R(12,17)                1.5453         estimate D2E/DX2                !
 ! R16   R(12,21)                1.5373         estimate D2E/DX2                !
 ! R17   R(13,14)                1.093          estimate D2E/DX2                !
 ! R18   R(13,15)                1.093          estimate D2E/DX2                !
 ! R19   R(13,16)                1.0882         estimate D2E/DX2                !
 ! R20   R(17,18)                1.093          estimate D2E/DX2                !
 ! R21   R(17,19)                1.093          estimate D2E/DX2                !
 ! R22   R(17,20)                1.0883         estimate D2E/DX2                !
 ! R23   R(21,22)                1.0918         estimate D2E/DX2                !
 ! R24   R(21,23)                1.0923         estimate D2E/DX2                !
 ! R25   R(21,24)                1.0923         estimate D2E/DX2                !
 ! R26   R(25,26)                1.5368         estimate D2E/DX2                !
 ! R27   R(25,30)                1.545          estimate D2E/DX2                !
 ! R28   R(25,34)                1.545          estimate D2E/DX2                !
 ! R29   R(26,27)                1.092          estimate D2E/DX2                !
 ! R30   R(26,28)                1.0916         estimate D2E/DX2                !
 ! R31   R(26,29)                1.092          estimate D2E/DX2                !
 ! R32   R(30,31)                1.0925         estimate D2E/DX2                !
 ! R33   R(30,32)                1.0908         estimate D2E/DX2                !
 ! R34   R(30,33)                1.0923         estimate D2E/DX2                !
 ! R35   R(34,35)                1.0925         estimate D2E/DX2                !
 ! R36   R(34,36)                1.0923         estimate D2E/DX2                !
 ! R37   R(34,37)                1.0908         estimate D2E/DX2                !
 ! A1    A(2,1,3)              119.4194         estimate D2E/DX2                !
 ! A2    A(2,1,8)              121.7063         estimate D2E/DX2                !
 ! A3    A(3,1,8)              118.8743         estimate D2E/DX2                !
 ! A4    A(1,2,6)              118.8468         estimate D2E/DX2                !
 ! A5    A(1,2,25)             119.1823         estimate D2E/DX2                !
 ! A6    A(6,2,25)             121.9709         estimate D2E/DX2                !
 ! A7    A(1,3,4)              122.4637         estimate D2E/DX2                !
 ! A8    A(1,3,9)              121.4709         estimate D2E/DX2                !
 ! A9    A(4,3,9)              116.0654         estimate D2E/DX2                !
 ! A10   A(3,4,5)              117.7738         estimate D2E/DX2                !
 ! A11   A(3,4,11)             116.4892         estimate D2E/DX2                !
 ! A12   A(5,4,11)             125.737          estimate D2E/DX2                !
 ! A13   A(4,5,6)              117.1767         estimate D2E/DX2                !
 ! A14   A(4,5,12)             120.0507         estimate D2E/DX2                !
 ! A15   A(6,5,12)             122.7726         estimate D2E/DX2                !
 ! A16   A(2,6,5)              124.3197         estimate D2E/DX2                !
 ! A17   A(2,6,7)              117.3789         estimate D2E/DX2                !
 ! A18   A(5,6,7)              118.3014         estimate D2E/DX2                !
 ! A19   A(3,9,10)             106.081          estimate D2E/DX2                !
 ! A20   A(5,12,13)            109.7245         estimate D2E/DX2                !
 ! A21   A(5,12,17)            109.725          estimate D2E/DX2                !
 ! A22   A(5,12,21)            112.103          estimate D2E/DX2                !
 ! A23   A(13,12,17)           109.7186         estimate D2E/DX2                !
 ! A24   A(13,12,21)           107.7578         estimate D2E/DX2                !
 ! A25   A(17,12,21)           107.7578         estimate D2E/DX2                !
 ! A26   A(12,13,14)           110.7638         estimate D2E/DX2                !
 ! A27   A(12,13,15)           109.6047         estimate D2E/DX2                !
 ! A28   A(12,13,16)           111.5908         estimate D2E/DX2                !
 ! A29   A(14,13,15)           107.8645         estimate D2E/DX2                !
 ! A30   A(14,13,16)           108.5233         estimate D2E/DX2                !
 ! A31   A(15,13,16)           108.388          estimate D2E/DX2                !
 ! A32   A(12,17,18)           109.605          estimate D2E/DX2                !
 ! A33   A(12,17,19)           110.7643         estimate D2E/DX2                !
 ! A34   A(12,17,20)           111.5905         estimate D2E/DX2                !
 ! A35   A(18,17,19)           107.8645         estimate D2E/DX2                !
 ! A36   A(18,17,20)           108.3877         estimate D2E/DX2                !
 ! A37   A(19,17,20)           108.5232         estimate D2E/DX2                !
 ! A38   A(12,21,22)           108.9791         estimate D2E/DX2                !
 ! A39   A(12,21,23)           112.1266         estimate D2E/DX2                !
 ! A40   A(12,21,24)           112.126          estimate D2E/DX2                !
 ! A41   A(22,21,23)           107.4896         estimate D2E/DX2                !
 ! A42   A(22,21,24)           107.49           estimate D2E/DX2                !
 ! A43   A(23,21,24)           108.4227         estimate D2E/DX2                !
 ! A44   A(2,25,26)            112.9634         estimate D2E/DX2                !
 ! A45   A(2,25,30)            109.137          estimate D2E/DX2                !
 ! A46   A(2,25,34)            109.1372         estimate D2E/DX2                !
 ! A47   A(26,25,30)           108.1362         estimate D2E/DX2                !
 ! A48   A(26,25,34)           108.1365         estimate D2E/DX2                !
 ! A49   A(30,25,34)           109.2712         estimate D2E/DX2                !
 ! A50   A(25,26,27)           112.0608         estimate D2E/DX2                !
 ! A51   A(25,26,28)           109.1224         estimate D2E/DX2                !
 ! A52   A(25,26,29)           112.061          estimate D2E/DX2                !
 ! A53   A(27,26,28)           107.4725         estimate D2E/DX2                !
 ! A54   A(27,26,29)           108.4471         estimate D2E/DX2                !
 ! A55   A(28,26,29)           107.4732         estimate D2E/DX2                !
 ! A56   A(25,30,31)           109.74           estimate D2E/DX2                !
 ! A57   A(25,30,32)           112.0245         estimate D2E/DX2                !
 ! A58   A(25,30,33)           110.9871         estimate D2E/DX2                !
 ! A59   A(31,30,32)           107.7897         estimate D2E/DX2                !
 ! A60   A(31,30,33)           108.0811         estimate D2E/DX2                !
 ! A61   A(32,30,33)           108.0815         estimate D2E/DX2                !
 ! A62   A(25,34,35)           109.7399         estimate D2E/DX2                !
 ! A63   A(25,34,36)           110.9873         estimate D2E/DX2                !
 ! A64   A(25,34,37)           112.0241         estimate D2E/DX2                !
 ! A65   A(35,34,36)           108.0812         estimate D2E/DX2                !
 ! A66   A(35,34,37)           107.7897         estimate D2E/DX2                !
 ! A67   A(36,34,37)           108.0816         estimate D2E/DX2                !
 ! D1    D(3,1,2,6)             -0.0009         estimate D2E/DX2                !
 ! D2    D(3,1,2,25)          -179.9996         estimate D2E/DX2                !
 ! D3    D(8,1,2,6)            179.9996         estimate D2E/DX2                !
 ! D4    D(8,1,2,25)             0.0009         estimate D2E/DX2                !
 ! D5    D(2,1,3,4)              0.0005         estimate D2E/DX2                !
 ! D6    D(2,1,3,9)            180.0            estimate D2E/DX2                !
 ! D7    D(8,1,3,4)            180.0            estimate D2E/DX2                !
 ! D8    D(8,1,3,9)             -0.0005         estimate D2E/DX2                !
 ! D9    D(1,2,6,5)              0.001          estimate D2E/DX2                !
 ! D10   D(1,2,6,7)           -179.9995         estimate D2E/DX2                !
 ! D11   D(25,2,6,5)           179.9996         estimate D2E/DX2                !
 ! D12   D(25,2,6,7)            -0.0009         estimate D2E/DX2                !
 ! D13   D(1,2,25,26)          179.9999         estimate D2E/DX2                !
 ! D14   D(1,2,25,30)          -59.677          estimate D2E/DX2                !
 ! D15   D(1,2,25,34)           59.6764         estimate D2E/DX2                !
 ! D16   D(6,2,25,26)            0.0013         estimate D2E/DX2                !
 ! D17   D(6,2,25,30)          120.3243         estimate D2E/DX2                !
 ! D18   D(6,2,25,34)         -120.3223         estimate D2E/DX2                !
 ! D19   D(1,3,4,5)              0.0            estimate D2E/DX2                !
 ! D20   D(1,3,4,11)          -179.9995         estimate D2E/DX2                !
 ! D21   D(9,3,4,5)           -179.9995         estimate D2E/DX2                !
 ! D22   D(9,3,4,11)             0.001          estimate D2E/DX2                !
 ! D23   D(1,3,9,10)           179.9995         estimate D2E/DX2                !
 ! D24   D(4,3,9,10)            -0.0009         estimate D2E/DX2                !
 ! D25   D(3,4,5,6)              0.0            estimate D2E/DX2                !
 ! D26   D(3,4,5,12)           180.0            estimate D2E/DX2                !
 ! D27   D(11,4,5,6)           179.9994         estimate D2E/DX2                !
 ! D28   D(11,4,5,12)           -0.0006         estimate D2E/DX2                !
 ! D29   D(4,5,6,2)             -0.0005         estimate D2E/DX2                !
 ! D30   D(4,5,6,7)            180.0            estimate D2E/DX2                !
 ! D31   D(12,5,6,2)           179.9995         estimate D2E/DX2                !
 ! D32   D(12,5,6,7)             0.0            estimate D2E/DX2                !
 ! D33   D(4,5,12,13)          -60.3092         estimate D2E/DX2                !
 ! D34   D(4,5,12,17)           60.3098         estimate D2E/DX2                !
 ! D35   D(4,5,12,21)         -179.9996         estimate D2E/DX2                !
 ! D36   D(6,5,12,13)          119.6908         estimate D2E/DX2                !
 ! D37   D(6,5,12,17)         -119.6902         estimate D2E/DX2                !
 ! D38   D(6,5,12,21)            0.0004         estimate D2E/DX2                !
 ! D39   D(5,12,13,14)         -60.5366         estimate D2E/DX2                !
 ! D40   D(5,12,13,15)        -179.4381         estimate D2E/DX2                !
 ! D41   D(5,12,13,16)          60.4901         estimate D2E/DX2                !
 ! D42   D(17,12,13,14)        178.8406         estimate D2E/DX2                !
 ! D43   D(17,12,13,15)         59.9391         estimate D2E/DX2                !
 ! D44   D(17,12,13,16)        -60.1327         estimate D2E/DX2                !
 ! D45   D(21,12,13,14)         61.7765         estimate D2E/DX2                !
 ! D46   D(21,12,13,15)        -57.125          estimate D2E/DX2                !
 ! D47   D(21,12,13,16)       -177.1968         estimate D2E/DX2                !
 ! D48   D(5,12,17,18)         179.4388         estimate D2E/DX2                !
 ! D49   D(5,12,17,19)          60.5368         estimate D2E/DX2                !
 ! D50   D(5,12,17,20)         -60.4898         estimate D2E/DX2                !
 ! D51   D(13,12,17,18)        -59.9387         estimate D2E/DX2                !
 ! D52   D(13,12,17,19)       -178.8406         estimate D2E/DX2                !
 ! D53   D(13,12,17,20)         60.1327         estimate D2E/DX2                !
 ! D54   D(21,12,17,18)         57.1254         estimate D2E/DX2                !
 ! D55   D(21,12,17,19)        -61.7765         estimate D2E/DX2                !
 ! D56   D(21,12,17,20)        177.1968         estimate D2E/DX2                !
 ! D57   D(5,12,21,22)         179.9989         estimate D2E/DX2                !
 ! D58   D(5,12,21,23)          61.123          estimate D2E/DX2                !
 ! D59   D(5,12,21,24)         -61.1251         estimate D2E/DX2                !
 ! D60   D(13,12,21,22)         59.1648         estimate D2E/DX2                !
 ! D61   D(13,12,21,23)        -59.7111         estimate D2E/DX2                !
 ! D62   D(13,12,21,24)        178.0408         estimate D2E/DX2                !
 ! D63   D(17,12,21,22)        -59.1665         estimate D2E/DX2                !
 ! D64   D(17,12,21,23)       -178.0423         estimate D2E/DX2                !
 ! D65   D(17,12,21,24)         59.7096         estimate D2E/DX2                !
 ! D66   D(2,25,26,27)         -61.0923         estimate D2E/DX2                !
 ! D67   D(2,25,26,28)        -179.9999         estimate D2E/DX2                !
 ! D68   D(2,25,26,29)          61.0915         estimate D2E/DX2                !
 ! D69   D(30,25,26,27)        178.0141         estimate D2E/DX2                !
 ! D70   D(30,25,26,28)         59.1065         estimate D2E/DX2                !
 ! D71   D(30,25,26,29)        -59.8021         estimate D2E/DX2                !
 ! D72   D(34,25,26,27)         59.8017         estimate D2E/DX2                !
 ! D73   D(34,25,26,28)        -59.1059         estimate D2E/DX2                !
 ! D74   D(34,25,26,29)       -178.0145         estimate D2E/DX2                !
 ! D75   D(2,25,30,31)         179.8777         estimate D2E/DX2                !
 ! D76   D(2,25,30,32)          60.1875         estimate D2E/DX2                !
 ! D77   D(2,25,30,33)         -60.7277         estimate D2E/DX2                !
 ! D78   D(26,25,30,31)        -56.8777         estimate D2E/DX2                !
 ! D79   D(26,25,30,32)       -176.568          estimate D2E/DX2                !
 ! D80   D(26,25,30,33)         62.5169         estimate D2E/DX2                !
 ! D81   D(34,25,30,31)         60.6075         estimate D2E/DX2                !
 ! D82   D(34,25,30,32)        -59.0828         estimate D2E/DX2                !
 ! D83   D(34,25,30,33)       -179.9979         estimate D2E/DX2                !
 ! D84   D(2,25,34,35)        -179.8776         estimate D2E/DX2                !
 ! D85   D(2,25,34,36)          60.7276         estimate D2E/DX2                !
 ! D86   D(2,25,34,37)         -60.1876         estimate D2E/DX2                !
 ! D87   D(26,25,34,35)         56.8775         estimate D2E/DX2                !
 ! D88   D(26,25,34,36)        -62.5173         estimate D2E/DX2                !
 ! D89   D(26,25,34,37)        176.5675         estimate D2E/DX2                !
 ! D90   D(30,25,34,35)        -60.6075         estimate D2E/DX2                !
 ! D91   D(30,25,34,36)        179.9977         estimate D2E/DX2                !
 ! D92   D(30,25,34,37)         59.0825         estimate D2E/DX2                !
 --------------------------------------------------------------------------------
 Trust Radius=3.00D-01 FncErr=5.00D-06 GrdErr=5.00D-06 EigMax=2.50D+02 EigMin=1.00D-04
 Number of steps in this run=    206 maximum allowed number of steps=    222.
 GradGradGradGradGradGradGradGradGradGradGradGradGradGradGradGradGradGrad

 Leave Link  103 at Wed Apr  9 18:02:23 2025, MaxMem=  8053063680 cpu:               1.5 elap:               0.1
 (Enter /export/g16/l202.exe)
                          Input orientation:                          
 ---------------------------------------------------------------------
 Center     Atomic      Atomic             Coordinates (Angstroms)
 Number     Number       Type             X           Y           Z
 ---------------------------------------------------------------------
      1          6           0       -1.270600    1.452440    0.000000
      2          6           0       -1.370530    0.054150    0.000010
      3          6           0       -0.027290    2.040990    0.000000
      4          6           0        1.207960    1.262970    0.000000
      5          6           0        1.095620   -0.186790    0.000000
      6          6           0       -0.175750   -0.719810    0.000000
      7          1           0       -0.279900   -1.790550    0.000000
      8          1           0       -2.147290    2.084590    0.000000
      9          8           0        0.116040    3.373520   -0.000010
     10          1           0        1.078510    3.542220    0.000000
     11          8           0        2.282950    1.916730    0.000010
     12          6           0        2.358300   -1.054010    0.000000
     13          6           0        3.196100   -0.755360   -1.263630
     14          1           0        2.626090   -0.980490   -2.168590
     15          1           0        4.091450   -1.382300   -1.266660
     16          1           0        3.506730    0.286940   -1.301040
     17          6           0        3.196100   -0.755380    1.263630
     18          1           0        4.091450   -1.382310    1.266650
     19          1           0        2.626100   -0.980520    2.168590
     20          1           0        3.506730    0.286930    1.301050
     21          6           0        2.028740   -2.555600   -0.000010
     22          1           0        2.961080   -3.123760   -0.000030
     23          1           0        1.463260   -2.852690   -0.886040
     24          1           0        1.463280   -2.852700    0.886040
     25          6           0       -2.758540   -0.595880    0.000000
     26          6           0       -2.701390   -2.131630    0.000010
     27          1           0       -2.197220   -2.523320   -0.885970
     28          1           0       -3.718770   -2.527340    0.000000
     29          1           0       -2.197230   -2.523310    0.885990
     30          6           0       -3.529790   -0.143310    1.259940
     31          1           0       -4.522410   -0.599670    1.268750
     32          1           0       -3.660350    0.939150    1.292810
     33          1           0       -3.007770   -0.449590    2.169240
     34          6           0       -3.529770   -0.143320   -1.259950
     35          1           0       -4.522390   -0.599680   -1.268770
     36          1           0       -3.007740   -0.449600   -2.169240
     37          1           0       -3.660330    0.939140   -1.292820
 ---------------------------------------------------------------------
                    Distance matrix (angstroms):
                    1          2          3          4          5
     1  C    0.000000
     2  C    1.401856   0.000000
     3  C    1.375577   2.398297   0.000000
     4  C    2.485791   2.847781   1.459849   0.000000
     5  C    2.878554   2.477892   2.494781   1.454106   0.000000
     6  C    2.432564   1.423557   2.764789   2.417865   1.378583
     7  H    3.390939   2.142987   3.839858   3.396721   2.112842
     8  H    1.080833   2.173946   2.120448   3.454383   3.959246
     9  O    2.369244   3.637047   1.340216   2.376281   3.692612
    10  H    3.144121   4.261975   1.864533   2.282923   3.729049
    11  O    3.583753   4.100868   2.313579   1.258176   2.415481
    12  C    4.410352   3.890012   3.907693   2.586828   1.531807
    13  C    5.140287   4.806891   4.450458   3.102115   2.516356
    14  H    5.079973   4.663290   4.568649   3.427388   2.770394
    15  H    6.196108   5.788011   5.503395   4.112955   3.465353
    16  H    5.086647   5.053176   4.154358   2.815969   2.780391
    17  C    5.140296   4.806889   4.450471   3.102128   2.516361
    18  H    6.196111   5.788007   5.503399   4.112958   3.465352
    19  H    5.079995   4.663296   4.568674   3.427412   2.770408
    20  H    5.086652   5.053173   4.154366   2.815977   2.780394
    21  C    5.191342   4.285537   5.035464   3.905785   2.545972
    22  H    6.232874   5.372333   5.966992   4.724069   3.479330
    23  H    5.176215   4.155138   5.191812   4.217689   2.833240
    24  H    5.176234   4.155154   5.191827   4.217700   2.833252
    25  C    2.531715   1.532681   3.796421   4.380462   3.875810
    26  C    3.859108   2.559067   4.955963   5.177483   4.266109
    27  H    4.177348   2.848110   5.130932   5.168770   4.133656
    28  H    4.672492   3.489745   5.873386   6.216037   5.353179
    29  H    4.177345   2.848103   5.130931   5.168773   4.133662
    30  C    3.039376   2.507752   4.315799   5.100132   4.794138
    31  H    4.049093   3.459990   5.365530   6.157621   5.774293
    32  H    2.765091   2.774497   4.010553   5.047441   5.055527
    33  H    3.367652   2.764031   4.448803   5.040917   4.648922
    34  C    3.039371   2.507750   4.315791   5.100119   4.794121
    35  H    4.049088   3.459988   5.365523   6.157609   5.774278
    36  H    3.367642   2.764031   4.448789   5.040895   4.648896
    37  H    2.765080   2.774491   4.010541   5.047425   5.055508
                    6          7          8          9         10
     6  C    0.000000
     7  H    1.075793   0.000000
     8  H    3.428065   4.301611   0.000000
     9  O    4.103717   5.179227   2.604612   0.000000
    10  H    4.442755   5.503064   3.539841   0.977143   0.000000
    11  O    3.605073   4.506898   4.433419   2.611079   2.023090
    12  C    2.555993   2.739086   5.491006   4.962938   4.771079
    13  C    3.601027   3.840697   6.181739   5.303881   4.954810
    14  H    3.552611   3.715341   6.073109   5.473618   5.249066
    15  H    4.500257   4.569442   7.248837   6.326619   5.910426
    16  H    4.033226   4.510791   6.073894   4.766176   4.264482
    17  C    3.601027   3.840692   6.181748   5.303901   4.954827
    18  H    4.500256   4.569438   7.248840   6.326629   5.910432
    19  H    3.552621   3.715342   6.073132   5.473654   5.249095
    20  H    4.033226   4.510789   6.073899   4.766191   4.264493
    21  C    2.868780   2.432102   6.242643   6.229999   6.171414
    22  H    3.952047   3.504483   7.295365   7.092877   6.926713
    23  H    2.832066   2.225267   6.180443   6.431620   6.467455
    24  H    2.832085   2.225288   6.180462   6.431637   6.467466
    25  C    2.585762   2.751526   2.749281   4.900954   5.643299
    26  C    2.893457   2.445394   4.252474   6.184221   6.817640
    27  H    2.850251   2.235623   4.692576   6.396000   6.950261
    28  H    3.977456   3.516914   4.872314   7.037465   7.736501
    29  H    2.850258   2.235636   4.692570   6.396000   6.950259
    30  C    3.628965   3.855209   2.909002   5.219928   6.033822
    31  H    4.529637   4.585500   3.802127   6.237885   7.080627
    32  H    4.070128   4.533218   2.296245   4.675325   5.559148
    33  H    3.577563   3.734307   3.445010   5.392588   6.110469
    34  C    3.628948   3.855191   2.909005   5.219918   6.033815
    35  H    4.529623   4.585485   3.802129   6.237876   7.080621
    36  H    3.577539   3.734282   3.445010   5.392570   6.110456
    37  H    4.070110   4.533200   2.296242   4.675311   5.559138
                   11         12         13         14         15
    11  O    0.000000
    12  C    2.971695   0.000000
    13  C    3.093654   1.545271   0.000000
    14  H    3.635169   2.186298   1.092954   0.000000
    15  H    3.969726   2.171638   1.093030   1.766977   0.000000
    16  H    2.417971   2.193113   1.088246   1.770466   1.769023
    17  C    3.093663   1.545267   2.527260   3.486505   2.756274
    18  H    3.969725   2.171633   2.756272   3.756276   2.533310
    19  H    3.635182   2.186298   3.486507   4.337180   3.756277
    20  H    2.417972   2.193113   2.785757   3.797405   3.117910
    21  C    4.479549   1.537330   2.490046   2.746004   2.689946
    22  H    5.085902   2.155739   2.694668   3.067324   2.432030
    23  H    4.919791   2.195772   2.746653   2.549949   3.035507
    24  H    4.919794   2.195772   3.467359   3.766704   3.701820
    25  C    5.632924   5.137308   6.089329   5.817641   7.010367
    26  C    6.421282   5.173174   6.186380   5.866003   6.950441
    27  H    6.369531   4.867913   5.688252   5.223960   6.402673
    28  H    7.467958   6.253118   7.249283   6.881335   7.994691
    29  H    6.369531   4.867923   6.069145   5.913981   6.744131
    30  C    6.294373   6.089863   7.209758   7.095812   8.124168
    31  H    7.365792   7.011442   8.124813   7.941120   9.013290
    32  H    6.160342   6.470564   7.511169   7.428703   8.487074
    33  H    6.188437   5.819419   7.096907   7.130147   7.941932
    34  C    6.294364   6.089844   6.753661   6.278622   7.721276
    35  H    7.365784   7.011426   7.720062   7.214947   8.649320
    36  H    6.188422   5.819390   6.277041   5.658788   7.216861
    37  H    6.160330   6.470544   7.062777   6.631065   8.091963
                   16         17         18         19         20
    16  H    0.000000
    17  C    2.785759   0.000000
    18  H    3.117904   1.093024   0.000000
    19  H    3.797407   1.092950   1.766970   0.000000
    20  H    2.602090   1.088256   1.769023   1.770470   0.000000
    21  C    3.457914   2.490042   2.689946   2.746005   3.457917
    22  H    3.690967   2.694679   2.432049   3.067344   3.690982
    23  H    3.768988   3.467351   3.701820   3.766694   4.337781
    24  H    4.337781   2.746633   3.035488   2.549930   3.768978
    25  C    6.459542   6.089330   7.010366   5.817652   6.459543
    26  C    6.788444   6.186371   6.950434   5.865999   6.788438
    27  H    6.372197   6.069126   6.744112   5.913965   6.724255
    28  H    7.862616   7.249278   7.994688   6.881338   7.862614
    29  H    6.724267   5.688251   6.402678   5.223962   6.372196
    30  C    7.500423   6.753683   7.721299   6.278658   7.049781
    31  H    8.476850   7.720082   8.649342   7.214981   8.078007
    32  H    7.649867   7.062803   8.091988   6.631107   7.196700
    33  H    7.417818   6.277073   7.216894   5.658832   6.613239
    34  C    7.049762   7.209743   8.124149   7.095810   7.500411
    35  H    8.077989   8.124800   9.013274   7.941120   8.476840
    36  H    6.613213   7.096882   7.941901   7.130133   7.417797
    37  H    7.196679   7.511156   8.487055   7.428705   7.649855
                   21         22         23         24         25
    21  C    0.000000
    22  H    1.091817   0.000000
    23  H    1.092282   1.761237   0.000000
    24  H    1.092290   1.761249   1.772080   0.000000
    25  C    5.172867   6.253338   4.868455   4.868477   0.000000
    26  C    4.749093   5.748729   4.318486   4.318503   1.536813
    27  H    4.317951   5.268157   3.675268   4.080168   2.194322
    28  H    5.747579   6.706423   5.267291   5.267311   2.156984
    29  H    4.317970   5.268181   4.080168   3.675300   2.194318
    30  C    6.189012   7.252724   6.072604   5.693096   1.545023
    31  H    6.953631   7.998966   6.748886   6.407113   2.172781
    32  H    6.800765   7.875405   6.736232   6.387110   2.200213
    33  H    5.874296   6.890870   5.924503   5.235631   2.188405
    34  C    6.188988   7.252693   5.693052   6.072607   1.545018
    35  H    6.953609   7.998938   6.407070   6.748893   2.172777
    36  H    5.874260   6.890821   5.235579   5.924495   2.188401
    37  H    6.800741   7.875375   6.387067   6.736235   2.200203
                   26         27         28         29         30
    26  C    0.000000
    27  H    1.092048   0.000000
    28  H    1.091627   1.760703   0.000000
    29  H    1.092040   1.771960   1.760704   0.000000
    30  C    2.495413   3.470608   2.703102   2.753172   0.000000
    31  H    2.696797   3.708066   2.443660   3.041933   1.092537
    32  H    3.467077   4.344713   3.700179   3.780853   1.090801
    33  H    2.762008   3.780431   3.086773   2.569829   1.092309
    34  C    2.495414   2.753171   2.703099   3.470601   2.519890
    35  H    2.696797   3.041931   2.443656   3.708060   2.754615
    36  H    2.762014   2.569833   3.086773   3.780427   3.482187
    37  H    3.467074   3.780853   3.700173   4.344702   2.775846
                   31         32         33         34         35
    31  H    0.000000
    32  H    1.763999   0.000000
    33  H    1.768485   1.767085   0.000000
    34  C    2.754617   2.775856   3.482187   0.000000
    35  H    2.537520   3.110113   3.759856   1.092537   0.000000
    36  H    3.759857   3.786861   4.338480   1.092305   1.768484
    37  H    3.110106   2.585630   3.786854   1.090801   1.763999
                   36         37
    36  H    0.000000
    37  H    1.767084   0.000000
 Stoichiometry    C14H21O2(2)
 Framework group  C1[X(C14H21O2)]
 Deg. of freedom   105
 Full point group                 C1      NOp   1
 Largest Abelian subgroup         C1      NOp   1
 Largest concise Abelian subgroup C1      NOp   1
                         Standard orientation:                         
 ---------------------------------------------------------------------
 Center     Atomic      Atomic             Coordinates (Angstroms)
 Number     Number       Type             X           Y           Z
 ---------------------------------------------------------------------
      1          6           0        1.270602    1.452441    0.000000
      2          6           0        1.370531    0.054151   -0.000010
      3          6           0        0.027292    2.040991    0.000000
      4          6           0       -1.207958    1.262971    0.000000
      5          6           0       -1.095619   -0.186789    0.000000
      6          6           0        0.175751   -0.719809    0.000000
      7          1           0        0.279901   -1.790549    0.000000
      8          1           0        2.147292    2.084590    0.000000
      9          8           0       -0.116038    3.373521    0.000010
     10          1           0       -1.078508    3.542221    0.000000
     11          8           0       -2.282948    1.916731   -0.000010
     12          6           0       -2.358299   -1.054009    0.000000
     13          6           0       -3.196099   -0.755358    1.263630
     14          1           0       -2.626089   -0.980489    2.168590
     15          1           0       -4.091449   -1.382298    1.266660
     16          1           0       -3.506729    0.286942    1.301040
     17          6           0       -3.196099   -0.755378   -1.263630
     18          1           0       -4.091449   -1.382308   -1.266650
     19          1           0       -2.626099   -0.980519   -2.168590
     20          1           0       -3.506729    0.286932   -1.301050
     21          6           0       -2.028739   -2.555599    0.000010
     22          1           0       -2.961079   -3.123758    0.000030
     23          1           0       -1.463259   -2.852689    0.886040
     24          1           0       -1.463279   -2.852699   -0.886040
     25          6           0        2.758541   -0.595880    0.000000
     26          6           0        2.701391   -2.131630   -0.000010
     27          1           0        2.197221   -2.523320    0.885970
     28          1           0        3.718771   -2.527340    0.000000
     29          1           0        2.197231   -2.523310   -0.885990
     30          6           0        3.529791   -0.143310   -1.259940
     31          1           0        4.522411   -0.599670   -1.268750
     32          1           0        3.660352    0.939150   -1.292810
     33          1           0        3.007771   -0.449590   -2.169240
     34          6           0        3.529771   -0.143320    1.259950
     35          1           0        4.522391   -0.599680    1.268770
     36          1           0        3.007741   -0.449600    2.169240
     37          1           0        3.660332    0.939140    1.292820
 ---------------------------------------------------------------------
 Rotational constants (GHZ):           0.7307436           0.3856580           0.2841747
 Leave Link  202 at Wed Apr  9 18:02:23 2025, MaxMem=  8053063680 cpu:               7.4 elap:               0.2
 (Enter /export/g16/l301.exe)
 Standard basis: 6-31+G(d) (6D, 7F)
 Ernie: Thresh=  0.10000D-02 Tol=  0.10000D-05 Strict=F.
 There are   346 symmetry adapted cartesian basis functions of A   symmetry.
 There are   346 symmetry adapted basis functions of A   symmetry.
   346 basis functions,   596 primitive gaussians,   346 cartesian basis functions
    61 alpha electrons       60 beta electrons
       nuclear repulsion energy      1155.9441311275 Hartrees.
 IExCor= 4336 DFT=T Ex+Corr=M062X ExCW=0 ScaHFX=  0.540000
 ScaDFX=  1.000000  1.000000  1.000000  1.000000 ScalE2=  1.000000  1.000000
 IRadAn=      5 IRanWt=     -1 IRanGd=            0 ICorTp=0 IEmpDi=  4
 NAtoms=   37 NActive=   37 NUniq=   37 SFac= 1.00D+00 NAtFMM=   60 NAOKFM=F Big=F
 Integral buffers will be    131072 words long.
 Raffenetti 2 integral format.
 Two-electron integral symmetry is turned on.
 ------------------------------------------------------------------------------
 Polarizable Continuum Model (PCM)
 =================================
 Model                : PCM.
 Atomic radii         : SMD-Coulomb.
 Polarization charges : Total charges.
 Charge compensation  : None.
 Solution method      : On-the-fly selection.
 Cavity type          : VdW (van der Waals Surface) (Alpha=1.000).
 Cavity algorithm     : GePol (No added spheres)
                        Default sphere list used, NSphG=   37.
                        Lebedev-Laikov grids with approx.  5.0 points / Ang**2.
                        Smoothing algorithm: York/Karplus (Gamma=1.0000).
                        Polarization charges: spherical gaussians, with
                                              point-specific exponents (IZeta= 3).
                        Self-potential: point-specific (ISelfS= 7).
                        Self-field    : sphere-specific E.n sum rule (ISelfD= 2).
 1st derivatives      : Analytical E(r).r(x)/FMM algorithm (CHGder, D1EAlg=3).
                        Cavity 1st derivative terms included.
 Solvent              : Water, Eps=  78.355300 Eps(inf)=   1.777849
 ------------------------------------------------------------------------------
 GePol: Number of generator spheres                  =      37
 GePol: Total number of spheres                      =      37
 GePol: Number of exposed spheres                    =      37 (100.00%)
 GePol: Number of points                             =    2423
 GePol: Average weight of points                     =       0.11
 GePol: Minimum weight of points                     =   0.55D-08
 GePol: Maximum weight of points                     =    0.21991
 GePol: Number of points with low weight             =     137
 GePol: Fraction of low-weight points (<1% of avg)   =       5.65%
 GePol: Cavity surface area                          =    270.127 Ang**2
 GePol: Cavity volume                                =    243.840 Ang**3
 ------------------------------------------------------------------------------
 Atomic radii for non-electrostatic terms: SMD-CDS.
 ------------------------------------------------------------------------------
 PCM non-electrostatic energy =         0.0116093609 Hartrees.
 Nuclear repulsion after PCM non-electrostatic terms =     1155.9557404884 Hartrees.
 Leave Link  301 at Wed Apr  9 18:02:24 2025, MaxMem=  8053063680 cpu:              12.6 elap:               0.5
 (Enter /export/g16/l302.exe)
 NPDir=0 NMtPBC=     1 NCelOv=     1 NCel=       1 NClECP=     1 NCelD=      1
         NCelK=      1 NCelE2=     1 NClLst=     1 CellRange=     0.0.
 One-electron integrals computed using PRISM.
 One-electron integral symmetry used in STVInt
 NBasis=   346 RedAO= T EigKep=  1.47D-06  NBF=   346
 NBsUse=   344 1.00D-06 EigRej=  5.55D-07 NBFU=   344
 Precomputing XC quadrature grid using
 IXCGrd= 4 IRadAn=           5 IRanWt=          -1 IRanGd=           0 AccXCQ= 0.00D+00.
 Generated NRdTot=       0 NPtTot=           0 NUsed=           0 NTot=          32
 NSgBfM=   345   345   345   345   345 MxSgAt=    37 MxSgA2=    37.
 Leave Link  302 at Wed Apr  9 18:02:25 2025, MaxMem=  8053063680 cpu:              36.0 elap:               1.0
 (Enter /export/g16/l303.exe)
 DipDrv:  MaxL=1.
 Leave Link  303 at Wed Apr  9 18:02:25 2025, MaxMem=  8053063680 cpu:               9.9 elap:               0.3
 (Enter /export/g16/l401.exe)
 ExpMin= 4.38D-02 ExpMax= 5.48D+03 ExpMxC= 8.25D+02 IAcc=3 IRadAn=         5 AccDes= 0.00D+00
 Harris functional with IExCor= 1009 and IRadAn=       5 diagonalized for initial guess.
 HarFok:  IExCor= 1009 AccDes= 0.00D+00 IRadAn=         5 IDoV= 1 UseB2=F ITyADJ=14
 ICtDFT=  3500011 ScaDFX=  1.000000  1.000000  1.000000  1.000000
 FoFCou: FMM=F IPFlag=           0 FMFlag=      100000 FMFlg1=           0
         NFxFlg=           0 DoJE=T BraDBF=F KetDBF=T FulRan=T
         wScrn=  0.000000 ICntrl=       500 IOpCl=  0 I1Cent=   200000004 NGrid=           0
         NMat0=    1 NMatS0=      1 NMatT0=    0 NMatD0=    1 NMtDS0=    0 NMtDT0=    0
 Petite list used in FoFCou.
 Harris En= -696.016594169405    
 JPrj=0 DoOrth=F DoCkMO=F.
 Initial guess <Sx>= 0.0000 <Sy>= 0.0000 <Sz>= 0.5000 <S**2>= 0.7500 S= 0.5000
 Leave Link  401 at Wed Apr  9 18:02:27 2025, MaxMem=  8053063680 cpu:              90.0 elap:               2.2
 (Enter /export/g16/l502.exe)
 Integral symmetry usage will be decided dynamically.
 UHF open shell SCF:
 Using DIIS extrapolation, IDIIS=    10.
 NGot=  8053063680 LenX=  8052805161 LenY=  8052685004
 Requested convergence on RMS density matrix=1.00D-08 within 128 cycles.
 Requested convergence on MAX density matrix=1.00D-06.
 Requested convergence on             energy=1.00D-06.
 Level shift goal  0.100 maximum shift  0.100.
 No special actions if energy rises.
 Dynamic level shift is on during FON iterations.
 Fock matrices will be formed incrementally for  20 cycles.

 Cycle   1  Pass 1  IDiag  1:
 FoFJK:  IHMeth= 1 ICntrl=       0 DoSepK=F KAlg= 0 I1Cent=           0 FoldK=F
 IRaf= 900000000 NMat=       1 IRICut=       1 DoRegI=T DoRafI=F ISym2E= 0 IDoP0=0 IntGTp=1.
 FoFCou: FMM=F IPFlag=           0 FMFlag=      100000 FMFlg1=           0
         NFxFlg=           0 DoJE=F BraDBF=F KetDBF=F FulRan=T
         wScrn=  0.000000 ICntrl=         0 IOpCl=  1 I1Cent=           0 NGrid=           0
         NMat0=    1 NMatS0=      1 NMatT0=    0 NMatD0=    1 NMtDS0=    0 NMtDT0=    0
 Symmetry not used in FoFCou.
 Inv3:  Mode=1 IEnd=    17612787.
 Iteration    1 A*A^-1 deviation from unit magnitude is 7.77D-15 for    702.
 Iteration    1 A*A^-1 deviation from orthogonality  is 3.73D-15 for   2402    388.
 Iteration    1 A^-1*A deviation from unit magnitude is 7.33D-15 for    702.
 Iteration    1 A^-1*A deviation from orthogonality  is 1.58D-14 for   2182   2104.
 E= -695.795058241035    
 DIIS: error= 4.52D-02 at cycle   1 NSaved=   1.
 NSaved= 1 IEnMin= 1 EnMin= -695.795058241035     IErMin= 1 ErrMin= 4.52D-02
 ErrMax= 4.52D-02  0.00D+00 EMaxC= 1.00D+00 BMatC= 2.04D+00 BMatP= 2.04D+00
 IDIUse=1 WtCom= 1.00D+00 WtEn= 0.00D+00
 Coeff-Com:  0.100D+01
 Coeff:      0.100D+01
 Gap=     0.278 Goal=     0.100 Shift=    0.000
 T= 1741. Gap= 0.202 NK=0 IS=   62 IE=  344 IFin=   61
          NO(<0.9)=   0  NV(>0.1)=   0     61.00e < EF      0.00e >EF  Err=0.0D+00
 Gap=     0.165 Goal=     0.100 Shift=    0.000
 T= 1741. Gap= 0.158 NK=0 IS=   61 IE=  344 IFin=   60
          NO(<0.9)=   0  NV(>0.1)=   0     60.00e < EF      0.00e >EF  Err=0.0D+00
 GapD=    0.165 DampG=1.000 DampE=0.500 DampFc=0.5000 IDamp=-1.
 Damping current iteration by 5.00D-01
 RMSDP=2.32D-02 MaxDP=1.35D+00              OVMax= 1.73D-01

 Cycle   2  Pass 1  IDiag  1:
 RMSU=  1.08D-02    CP:  9.13D-01
 E= -696.047658430362     Delta-E=       -0.252600189327 Rises=F Damp=T
 DIIS: error= 1.33D-02 at cycle   2 NSaved=   2.
 NSaved= 2 IEnMin= 2 EnMin= -696.047658430362     IErMin= 2 ErrMin= 1.33D-02
 ErrMax= 1.33D-02  0.00D+00 EMaxC= 1.00D+00 BMatC= 1.35D-01 BMatP= 2.04D+00
 IDIUse=1 WtCom= 1.00D+00 WtEn= 0.00D+00
 Coeff-Com: -0.114D+00 0.111D+01
 Coeff:     -0.114D+00 0.111D+01
 Gap=     0.280 Goal=     0.100 Shift=    0.000
 T= 1581. Gap= 0.266 NK=4 IS=   62 IE=   87 IFin=   61
          NO(<0.9)=   0  NV(>0.1)=   0     61.00e < EF      0.00e >EF  Err=0.0D+00
 Gap=     0.187 Goal=     0.100 Shift=    0.000
 T= 1581. Gap= 0.180 NK=4 IS=   61 IE=   87 IFin=   60
          NO(<0.9)=   0  NV(>0.1)=   0     60.00e < EF      0.00e >EF  Err=0.0D+00
 GapD=    0.187 DampG=1.000 DampE=0.500 DampFc=0.5000 IDamp=-1.
 Damping current iteration by 5.00D-01
 RMSDP=1.23D-02 MaxDP=1.38D+00 DE=-2.53D-01 OVMax= 8.16D-02

 Cycle   3  Pass 1  IDiag  1:
 RMSU=  3.71D-03    CP:  8.14D-01  9.06D-01
 E= -696.162248833814     Delta-E=       -0.114590403452 Rises=F Damp=T
 DIIS: error= 6.38D-03 at cycle   3 NSaved=   3.
 NSaved= 3 IEnMin= 3 EnMin= -696.162248833814     IErMin= 3 ErrMin= 6.38D-03
 ErrMax= 6.38D-03  0.00D+00 EMaxC= 1.00D+00 BMatC= 3.37D-02 BMatP= 1.35D-01
 IDIUse=1 WtCom= 1.00D+00 WtEn= 0.00D+00
 Coeff-Com: -0.779D-01-0.311D+00 0.139D+01
 Coeff:     -0.779D-01-0.311D+00 0.139D+01
 Gap=     0.279 Goal=     0.100 Shift=    0.000
 T= 1300. Gap= 0.271 NK=4 IS=   62 IE=   87 IFin=   61
          NO(<0.9)=   0  NV(>0.1)=   0     61.00e < EF      0.00e >EF  Err=0.0D+00
 Gap=     0.188 Goal=     0.100 Shift=    0.000
 T= 1300. Gap= 0.188 NK=4 IS=   61 IE=   87 IFin=   60
          NO(<0.9)=   0  NV(>0.1)=   0     60.00e < EF      0.00e >EF  Err=0.0D+00
 GapD=    0.188 DampG=1.000 DampE=1.000 DampFc=1.0000 IDamp=-1.
 RMSDP=5.53D-03 MaxDP=6.46D-01 DE=-1.15D-01 OVMax= 2.84D-02

 Cycle   4  Pass 1  IDiag  1:
 RMSU=  1.72D-03    CP:  7.36D-01  7.91D-01  1.92D+00
 E= -696.277420824812     Delta-E=       -0.115171990998 Rises=F Damp=F
 DIIS: error= 3.25D-03 at cycle   4 NSaved=   4.
 NSaved= 4 IEnMin= 4 EnMin= -696.277420824812     IErMin= 4 ErrMin= 3.25D-03
 ErrMax= 3.25D-03  0.00D+00 EMaxC= 1.00D+00 BMatC= 1.26D-02 BMatP= 3.37D-02
 IDIUse=1 WtCom= 1.00D+00 WtEn= 0.00D+00
 Coeff-Com: -0.227D-01-0.321D+00 0.761D+00 0.582D+00
 Coeff:     -0.227D-01-0.321D+00 0.761D+00 0.582D+00
 Gap=     0.275 Goal=     0.100 Shift=    0.000
 T=  677. Gap= 0.275 NK=4 IS=   62 IE=   87 IFin=   61
          NO(<0.9)=   0  NV(>0.1)=   0     61.00e < EF      0.00e >EF  Err=0.0D+00
 Gap=     0.187 Goal=     0.100 Shift=    0.000
 T=  677. Gap= 0.187 NK=4 IS=   61 IE=   87 IFin=   60
          NO(<0.9)=   0  NV(>0.1)=   0     60.00e < EF      0.00e >EF  Err=0.0D+00
 GapD=    0.187 DampG=1.000 DampE=1.000 DampFc=1.0000 IDamp=-1.
 RMSDP=7.56D-04 MaxDP=3.81D-02 DE=-1.15D-01 OVMax= 1.06D-02

 Cycle   5  Pass 1  IDiag  1:
 RMSU=  6.18D-04    CP:  7.34D-01  7.93D-01  1.93D+00  7.54D-01
 E= -696.279970203466     Delta-E=       -0.002549378654 Rises=F Damp=F
 DIIS: error= 5.59D-04 at cycle   5 NSaved=   5.
 NSaved= 5 IEnMin= 5 EnMin= -696.279970203466     IErMin= 5 ErrMin= 5.59D-04
 ErrMax= 5.59D-04  0.00D+00 EMaxC= 1.00D+00 BMatC= 3.28D-04 BMatP= 1.26D-02
 IDIUse=1 WtCom= 1.00D+00 WtEn= 0.00D+00
 Coeff-Com: -0.498D-02-0.115D+00 0.245D+00 0.213D+00 0.662D+00
 Coeff:     -0.498D-02-0.115D+00 0.245D+00 0.213D+00 0.662D+00
 Gap=     0.275 Goal=     0.100 Shift=    0.000
 Gap=     0.189 Goal=     0.100 Shift=    0.000
 RMSDP=3.48D-04 MaxDP=3.93D-02 DE=-2.55D-03 OVMax= 5.86D-03

 Cycle   6  Pass 1  IDiag  1:
 RMSU=  2.38D-04    CP:  7.30D-01  7.81D-01  1.95D+00  7.50D-01  9.87D-01
 E= -696.280115767175     Delta-E=       -0.000145563709 Rises=F Damp=F
 DIIS: error= 3.97D-04 at cycle   6 NSaved=   6.
 NSaved= 6 IEnMin= 6 EnMin= -696.280115767175     IErMin= 6 ErrMin= 3.97D-04
 ErrMax= 3.97D-04  0.00D+00 EMaxC= 1.00D+00 BMatC= 7.34D-05 BMatP= 3.28D-04
 IDIUse=1 WtCom= 1.00D+00 WtEn= 0.00D+00
 Coeff-Com:  0.449D-02 0.453D-01-0.115D+00-0.101D+00 0.108D+00 0.106D+01
 Coeff:      0.449D-02 0.453D-01-0.115D+00-0.101D+00 0.108D+00 0.106D+01
 Gap=     0.276 Goal=     0.100 Shift=    0.000
 Gap=     0.191 Goal=     0.100 Shift=    0.000
 RMSDP=1.32D-04 MaxDP=1.06D-02 DE=-1.46D-04 OVMax= 9.30D-03

 Cycle   7  Pass 1  IDiag  1:
 RMSU=  1.03D-04    CP:  7.30D-01  7.78D-01  1.95D+00  7.48D-01  1.10D+00
                    CP:  9.87D-01
 E= -696.280200061757     Delta-E=       -0.000084294581 Rises=F Damp=F
 DIIS: error= 2.39D-04 at cycle   7 NSaved=   7.
 NSaved= 7 IEnMin= 7 EnMin= -696.280200061757     IErMin= 7 ErrMin= 2.39D-04
 ErrMax= 2.39D-04  0.00D+00 EMaxC= 1.00D+00 BMatC= 2.28D-05 BMatP= 7.34D-05
 IDIUse=1 WtCom= 1.00D+00 WtEn= 0.00D+00
 Coeff-Com:  0.245D-02 0.389D-01-0.877D-01-0.918D-01-0.141D+00 0.285D+00
 Coeff-Com:  0.994D+00
 Coeff:      0.245D-02 0.389D-01-0.877D-01-0.918D-01-0.141D+00 0.285D+00
 Coeff:      0.994D+00
 Gap=     0.276 Goal=     0.100 Shift=    0.000
 Gap=     0.191 Goal=     0.100 Shift=    0.000
 RMSDP=9.07D-05 MaxDP=6.16D-03 DE=-8.43D-05 OVMax= 6.74D-03

 Cycle   8  Pass 1  IDiag  1:
 RMSU=  4.72D-05    CP:  7.30D-01  7.76D-01  1.95D+00  7.40D-01  1.16D+00
                    CP:  1.10D+00  1.56D+00
 E= -696.280230375510     Delta-E=       -0.000030313753 Rises=F Damp=F
 DIIS: error= 1.19D-04 at cycle   8 NSaved=   8.
 NSaved= 8 IEnMin= 8 EnMin= -696.280230375510     IErMin= 8 ErrMin= 1.19D-04
 ErrMax= 1.19D-04  0.00D+00 EMaxC= 1.00D+00 BMatC= 6.61D-06 BMatP= 2.28D-05
 IDIUse=1 WtCom= 1.00D+00 WtEn= 0.00D+00
 Coeff-Com: -0.415D-03-0.282D-02 0.872D-02-0.545D-02-0.691D-01-0.212D+00
 Coeff-Com:  0.327D+00 0.954D+00
 Coeff:     -0.415D-03-0.282D-02 0.872D-02-0.545D-02-0.691D-01-0.212D+00
 Coeff:      0.327D+00 0.954D+00
 Gap=     0.277 Goal=     0.100 Shift=    0.000
 Gap=     0.192 Goal=     0.100 Shift=    0.000
 RMSDP=6.05D-05 MaxDP=3.94D-03 DE=-3.03D-05 OVMax= 4.51D-03

 Cycle   9  Pass 1  IDiag  1:
 RMSU=  2.39D-05    CP:  7.30D-01  7.77D-01  1.95D+00  7.23D-01  1.15D+00
                    CP:  1.09D+00  1.98D+00  1.24D+00
 E= -696.280238886200     Delta-E=       -0.000008510690 Rises=F Damp=F
 DIIS: error= 6.07D-05 at cycle   9 NSaved=   9.
 NSaved= 9 IEnMin= 9 EnMin= -696.280238886200     IErMin= 9 ErrMin= 6.07D-05
 ErrMax= 6.07D-05  0.00D+00 EMaxC= 1.00D+00 BMatC= 1.06D-06 BMatP= 6.61D-06
 IDIUse=1 WtCom= 1.00D+00 WtEn= 0.00D+00
 Coeff-Com: -0.472D-03-0.919D-02 0.206D-01 0.163D-01 0.231D-01-0.841D-01
 Coeff-Com: -0.155D+00 0.125D+00 0.106D+01
 Coeff:     -0.472D-03-0.919D-02 0.206D-01 0.163D-01 0.231D-01-0.841D-01
 Coeff:     -0.155D+00 0.125D+00 0.106D+01
 Gap=     0.277 Goal=     0.100 Shift=    0.000
 Gap=     0.192 Goal=     0.100 Shift=    0.000
 RMSDP=2.69D-05 MaxDP=1.93D-03 DE=-8.51D-06 OVMax= 2.41D-03

 Cycle  10  Pass 1  IDiag  1:
 RMSU=  9.45D-06    CP:  7.30D-01  7.78D-01  1.95D+00  7.17D-01  1.15D+00
                    CP:  1.08D+00  2.13D+00  1.45D+00  1.30D+00
 E= -696.280240914880     Delta-E=       -0.000002028680 Rises=F Damp=F
 DIIS: error= 3.07D-05 at cycle  10 NSaved=  10.
 NSaved=10 IEnMin=10 EnMin= -696.280240914880     IErMin=10 ErrMin= 3.07D-05
 ErrMax= 3.07D-05  0.00D+00 EMaxC= 1.00D+00 BMatC= 3.72D-07 BMatP= 1.06D-06
 IDIUse=1 WtCom= 1.00D+00 WtEn= 0.00D+00
 Coeff-Com: -0.682D-04-0.294D-02 0.603D-02 0.703D-02 0.231D-01 0.139D-01
 Coeff-Com: -0.132D+00-0.170D+00 0.394D+00 0.860D+00
 Coeff:     -0.682D-04-0.294D-02 0.603D-02 0.703D-02 0.231D-01 0.139D-01
 Coeff:     -0.132D+00-0.170D+00 0.394D+00 0.860D+00
 Gap=     0.277 Goal=     0.100 Shift=    0.000
 Gap=     0.192 Goal=     0.100 Shift=    0.000
 RMSDP=1.15D-05 MaxDP=6.74D-04 DE=-2.03D-06 OVMax= 1.32D-03

 Cycle  11  Pass 1  IDiag  1:
 RMSU=  5.20D-06    CP:  7.30D-01  7.78D-01  1.95D+00  7.15D-01  1.15D+00
                    CP:  1.07D+00  2.20D+00  1.56D+00  1.42D+00  1.32D+00
 E= -696.280241533538     Delta-E=       -0.000000618658 Rises=F Damp=F
 DIIS: error= 1.93D-05 at cycle  11 NSaved=  11.
 NSaved=11 IEnMin=11 EnMin= -696.280241533538     IErMin=11 ErrMin= 1.93D-05
 ErrMax= 1.93D-05  0.00D+00 EMaxC= 1.00D+00 BMatC= 7.54D-08 BMatP= 3.72D-07
 IDIUse=1 WtCom= 1.00D+00 WtEn= 0.00D+00
 Coeff-Com:  0.184D-03 0.273D-02-0.635D-02-0.476D-02-0.389D-02 0.356D-01
 Coeff-Com:  0.326D-01-0.682D-01-0.318D+00 0.112D+00 0.122D+01
 Coeff:      0.184D-03 0.273D-02-0.635D-02-0.476D-02-0.389D-02 0.356D-01
 Coeff:      0.326D-01-0.682D-01-0.318D+00 0.112D+00 0.122D+01
 Gap=     0.277 Goal=     0.100 Shift=    0.000
 Gap=     0.192 Goal=     0.100 Shift=    0.000
 RMSDP=5.99D-06 MaxDP=3.55D-04 DE=-6.19D-07 OVMax= 1.09D-03

 Cycle  12  Pass 1  IDiag  1:
 RMSU=  2.91D-06    CP:  7.30D-01  7.78D-01  1.95D+00  7.15D-01  1.15D+00
                    CP:  1.08D+00  2.20D+00  1.59D+00  1.50D+00  1.62D+00
                    CP:  1.46D+00
 E= -696.280241769144     Delta-E=       -0.000000235605 Rises=F Damp=F
 DIIS: error= 6.75D-06 at cycle  12 NSaved=  12.
 NSaved=12 IEnMin=12 EnMin= -696.280241769144     IErMin=12 ErrMin= 6.75D-06
 ErrMax= 6.75D-06  0.00D+00 EMaxC= 1.00D+00 BMatC= 2.69D-08 BMatP= 7.54D-08
 IDIUse=1 WtCom= 1.00D+00 WtEn= 0.00D+00
 Coeff-Com:  0.760D-04 0.166D-02-0.367D-02-0.326D-02-0.708D-02 0.113D-01
 Coeff-Com:  0.361D-01 0.866D-02-0.206D+00-0.144D+00 0.505D+00 0.802D+00
 Coeff:      0.760D-04 0.166D-02-0.367D-02-0.326D-02-0.708D-02 0.113D-01
 Coeff:      0.361D-01 0.866D-02-0.206D+00-0.144D+00 0.505D+00 0.802D+00
 Gap=     0.277 Goal=     0.100 Shift=    0.000
 Gap=     0.192 Goal=     0.100 Shift=    0.000
 RMSDP=3.07D-06 MaxDP=1.69D-04 DE=-2.36D-07 OVMax= 4.27D-04

 Cycle  13  Pass 1  IDiag  1:
 RMSU=  1.26D-06    CP:  7.30D-01  7.78D-01  1.95D+00  7.14D-01  1.15D+00
                    CP:  1.08D+00  2.21D+00  1.61D+00  1.51D+00  1.72D+00
                    CP:  1.75D+00  1.38D+00
 E= -696.280241809403     Delta-E=       -0.000000040259 Rises=F Damp=F
 DIIS: error= 4.09D-06 at cycle  13 NSaved=  13.
 NSaved=13 IEnMin=13 EnMin= -696.280241809403     IErMin=13 ErrMin= 4.09D-06
 ErrMax= 4.09D-06  0.00D+00 EMaxC= 1.00D+00 BMatC= 3.68D-09 BMatP= 2.69D-08
 IDIUse=1 WtCom= 1.00D+00 WtEn= 0.00D+00
 Coeff-Com: -0.351D-04-0.308D-03 0.783D-03 0.461D-03-0.125D-02-0.453D-02
 Coeff-Com:  0.644D-04 0.240D-01 0.210D-01-0.806D-01-0.131D+00 0.139D+00
 Coeff-Com:  0.103D+01
 Coeff:     -0.351D-04-0.308D-03 0.783D-03 0.461D-03-0.125D-02-0.453D-02
 Coeff:      0.644D-04 0.240D-01 0.210D-01-0.806D-01-0.131D+00 0.139D+00
 Coeff:      0.103D+01
 Gap=     0.277 Goal=     0.100 Shift=    0.000
 Gap=     0.192 Goal=     0.100 Shift=    0.000
 RMSDP=1.42D-06 MaxDP=1.13D-04 DE=-4.03D-08 OVMax= 1.98D-04

 Cycle  14  Pass 1  IDiag  1:
 RMSU=  5.22D-07    CP:  7.30D-01  7.78D-01  1.95D+00  7.14D-01  1.15D+00
                    CP:  1.08D+00  2.21D+00  1.61D+00  1.51D+00  1.75D+00
                    CP:  1.84D+00  1.64D+00  1.42D+00
 E= -696.280241817472     Delta-E=       -0.000000008070 Rises=F Damp=F
 DIIS: error= 1.36D-06 at cycle  14 NSaved=  14.
 NSaved=14 IEnMin=14 EnMin= -696.280241817472     IErMin=14 ErrMin= 1.36D-06
 ErrMax= 1.36D-06  0.00D+00 EMaxC= 1.00D+00 BMatC= 1.11D-09 BMatP= 3.68D-09
 IDIUse=1 WtCom= 1.00D+00 WtEn= 0.00D+00
 Coeff-Com: -0.147D-04-0.292D-03 0.654D-03 0.601D-03 0.736D-03-0.162D-02
 Coeff-Com: -0.733D-02 0.199D-02 0.348D-01 0.164D-01-0.824D-01-0.216D+00
 Coeff-Com:  0.169D+00 0.108D+01
 Coeff:     -0.147D-04-0.292D-03 0.654D-03 0.601D-03 0.736D-03-0.162D-02
 Coeff:     -0.733D-02 0.199D-02 0.348D-01 0.164D-01-0.824D-01-0.216D+00
 Coeff:      0.169D+00 0.108D+01
 Gap=     0.277 Goal=     0.100 Shift=    0.000
 Gap=     0.192 Goal=     0.100 Shift=    0.000
 RMSDP=8.25D-07 MaxDP=5.79D-05 DE=-8.07D-09 OVMax= 9.57D-05

 Cycle  15  Pass 1  IDiag  1:
 RMSU=  2.75D-07    CP:  7.30D-01  7.78D-01  1.95D+00  7.14D-01  1.15D+00
                    CP:  1.08D+00  2.21D+00  1.61D+00  1.51D+00  1.75D+00
                    CP:  1.90D+00  1.74D+00  1.71D+00  1.30D+00
 E= -696.280241819102     Delta-E=       -0.000000001630 Rises=F Damp=F
 DIIS: error= 5.28D-07 at cycle  15 NSaved=  15.
 NSaved=15 IEnMin=15 EnMin= -696.280241819102     IErMin=15 ErrMin= 5.28D-07
 ErrMax= 5.28D-07  0.00D+00 EMaxC= 1.00D+00 BMatC= 1.23D-10 BMatP= 1.11D-09
 IDIUse=1 WtCom= 1.00D+00 WtEn= 0.00D+00
 Coeff-Com:  0.451D-05 0.200D-04-0.600D-04 0.129D-05 0.168D-03 0.674D-03
 Coeff-Com: -0.920D-03-0.272D-02-0.267D-03 0.134D-01 0.169D-01-0.590D-01
 Coeff-Com: -0.116D+00 0.762D-01 0.107D+01
 Coeff:      0.451D-05 0.200D-04-0.600D-04 0.129D-05 0.168D-03 0.674D-03
 Coeff:     -0.920D-03-0.272D-02-0.267D-03 0.134D-01 0.169D-01-0.590D-01
 Coeff:     -0.116D+00 0.762D-01 0.107D+01
 Gap=     0.277 Goal=     0.100 Shift=    0.000
 Gap=     0.192 Goal=     0.100 Shift=    0.000
 RMSDP=3.36D-07 MaxDP=2.95D-05 DE=-1.63D-09 OVMax= 2.39D-05

 Cycle  16  Pass 1  IDiag  1:
 RMSU=  1.20D-07    CP:  7.30D-01  7.78D-01  1.95D+00  7.14D-01  1.15D+00
                    CP:  1.08D+00  2.21D+00  1.61D+00  1.51D+00  1.76D+00
                    CP:  1.90D+00  1.75D+00  1.76D+00  1.48D+00  1.45D+00
 E= -696.280241819290     Delta-E=       -0.000000000188 Rises=F Damp=F
 DIIS: error= 1.93D-07 at cycle  16 NSaved=  16.
 NSaved=16 IEnMin=16 EnMin= -696.280241819290     IErMin=16 ErrMin= 1.93D-07
 ErrMax= 1.93D-07  0.00D+00 EMaxC= 1.00D+00 BMatC= 3.86D-11 BMatP= 1.23D-10
 IDIUse=1 WtCom= 1.00D+00 WtEn= 0.00D+00
 Coeff-Com:  0.497D-05 0.714D-04-0.166D-03-0.123D-03-0.935D-04 0.686D-03
 Coeff-Com:  0.113D-02-0.154D-02-0.811D-02 0.173D-02 0.258D-01 0.200D-01
 Coeff-Com: -0.783D-01-0.196D+00 0.478D+00 0.757D+00
 Coeff:      0.497D-05 0.714D-04-0.166D-03-0.123D-03-0.935D-04 0.686D-03
 Coeff:      0.113D-02-0.154D-02-0.811D-02 0.173D-02 0.258D-01 0.200D-01
 Coeff:     -0.783D-01-0.196D+00 0.478D+00 0.757D+00
 Gap=     0.277 Goal=     0.100 Shift=    0.000
 Gap=     0.192 Goal=     0.100 Shift=    0.000
 RMSDP=9.75D-08 MaxDP=7.46D-06 DE=-1.88D-10 OVMax= 6.59D-06

 Cycle  17  Pass 1  IDiag  1:
 RMSU=  5.03D-08    CP:  7.30D-01  7.78D-01  1.95D+00  7.14D-01  1.15D+00
                    CP:  1.08D+00  2.21D+00  1.61D+00  1.51D+00  1.76D+00
                    CP:  1.91D+00  1.75D+00  1.77D+00  1.48D+00  1.59D+00
                    CP:  1.12D+00
 E= -696.280241819314     Delta-E=       -0.000000000024 Rises=F Damp=F
 DIIS: error= 1.14D-07 at cycle  17 NSaved=  17.
 NSaved=17 IEnMin=17 EnMin= -696.280241819314     IErMin=17 ErrMin= 1.14D-07
 ErrMax= 1.14D-07  0.00D+00 EMaxC= 1.00D+00 BMatC= 4.81D-12 BMatP= 3.86D-11
 IDIUse=1 WtCom= 1.00D+00 WtEn= 0.00D+00
 Coeff-Com: -0.713D-06 0.112D-05 0.335D-06-0.783D-05-0.320D-04-0.874D-04
 Coeff-Com:  0.270D-03 0.398D-03-0.410D-03-0.224D-02-0.178D-02 0.137D-01
 Coeff-Com:  0.154D-01-0.304D-01-0.192D+00 0.306D-01 0.117D+01
 Coeff:     -0.713D-06 0.112D-05 0.335D-06-0.783D-05-0.320D-04-0.874D-04
 Coeff:      0.270D-03 0.398D-03-0.410D-03-0.224D-02-0.178D-02 0.137D-01
 Coeff:      0.154D-01-0.304D-01-0.192D+00 0.306D-01 0.117D+01
 Gap=     0.277 Goal=     0.100 Shift=    0.000
 Gap=     0.192 Goal=     0.100 Shift=    0.000
 RMSDP=4.50D-08 MaxDP=3.02D-06 DE=-2.39D-11 OVMax= 3.26D-06

 Cycle  18  Pass 1  IDiag  1:
 RMSU=  2.67D-08    CP:  7.30D-01  7.78D-01  1.95D+00  7.14D-01  1.15D+00
                    CP:  1.08D+00  2.21D+00  1.61D+00  1.51D+00  1.76D+00
                    CP:  1.91D+00  1.75D+00  1.77D+00  1.47D+00  1.63D+00
                    CP:  1.30D+00  1.39D+00
 E= -696.280241819353     Delta-E=       -0.000000000039 Rises=F Damp=F
 DIIS: error= 4.64D-08 at cycle  18 NSaved=  18.
 NSaved=18 IEnMin=18 EnMin= -696.280241819353     IErMin=18 ErrMin= 4.64D-08
 ErrMax= 4.64D-08  0.00D+00 EMaxC= 1.00D+00 BMatC= 1.36D-12 BMatP= 4.81D-12
 IDIUse=1 WtCom= 1.00D+00 WtEn= 0.00D+00
 Coeff-Com: -0.114D-05-0.107D-04 0.264D-04 0.169D-04 0.171D-05-0.144D-03
 Coeff-Com: -0.610D-04 0.410D-03 0.110D-02-0.134D-02-0.500D-02 0.302D-02
 Coeff-Com:  0.201D-01 0.195D-01-0.159D+00-0.114D+00 0.496D+00 0.740D+00
 Coeff:     -0.114D-05-0.107D-04 0.264D-04 0.169D-04 0.171D-05-0.144D-03
 Coeff:     -0.610D-04 0.410D-03 0.110D-02-0.134D-02-0.500D-02 0.302D-02
 Coeff:      0.201D-01 0.195D-01-0.159D+00-0.114D+00 0.496D+00 0.740D+00
 Gap=     0.277 Goal=     0.100 Shift=    0.000
 Gap=     0.192 Goal=     0.100 Shift=    0.000
 RMSDP=1.64D-08 MaxDP=2.11D-06 DE=-3.91D-11 OVMax= 1.18D-06

 Cycle  19  Pass 1  IDiag  1:
 RMSU=  9.73D-09    CP:  7.30D-01  7.78D-01  1.95D+00  7.14D-01  1.15D+00
                    CP:  1.08D+00  2.21D+00  1.61D+00  1.51D+00  1.76D+00
                    CP:  1.91D+00  1.75D+00  1.77D+00  1.46D+00  1.62D+00
                    CP:  1.31D+00  1.54D+00  1.13D+00
 E= -696.280241819344     Delta-E=        0.000000000009 Rises=F Damp=F
 DIIS: error= 1.67D-08 at cycle  19 NSaved=  19.
 NSaved=19 IEnMin=18 EnMin= -696.280241819353     IErMin=19 ErrMin= 1.67D-08
 ErrMax= 1.67D-08  0.00D+00 EMaxC= 1.00D+00 BMatC= 2.88D-13 BMatP= 1.36D-12
 IDIUse=1 WtCom= 1.00D+00 WtEn= 0.00D+00
 Coeff-Com:  0.492D-07-0.342D-06 0.653D-06 0.171D-05 0.278D-05 0.118D-06
 Coeff-Com: -0.391D-04-0.335D-04 0.222D-03 0.298D-03-0.197D-03-0.235D-02
 Coeff-Com: -0.974D-03 0.833D-02 0.191D-01-0.324D-01-0.203D+00 0.231D+00
 Coeff-Com:  0.980D+00
 Coeff:      0.492D-07-0.342D-06 0.653D-06 0.171D-05 0.278D-05 0.118D-06
 Coeff:     -0.391D-04-0.335D-04 0.222D-03 0.298D-03-0.197D-03-0.235D-02
 Coeff:     -0.974D-03 0.833D-02 0.191D-01-0.324D-01-0.203D+00 0.231D+00
 Coeff:      0.980D+00
 Gap=     0.277 Goal=     0.100 Shift=    0.000
 Gap=     0.192 Goal=     0.100 Shift=    0.000
 RMSDP=9.24D-09 MaxDP=6.20D-07 DE= 9.09D-12 OVMax= 5.65D-07

 Error on total polarization charges =  0.07025
 SCF Done:  E(UM062X) =  -696.280241819     A.U. after   19 cycles
            NFock= 19  Conv=0.92D-08     -V/T= 2.0087
 <Sx>= 0.0000 <Sy>= 0.0000 <Sz>= 0.5000 <S**2>= 0.7733 S= 0.5116
 <L.S>= 0.000000000000E+00
 KE= 6.902541261818D+02 PE=-3.927858343755D+03 EE= 1.385368235266D+03
 SMD-CDS (non-electrostatic) energy       (kcal/mol) =       7.28
 (included in total energy above)
 Annihilation of the first spin contaminant:
 S**2 before annihilation     0.7733,   after     0.7503
 Leave Link  502 at Wed Apr  9 18:05:38 2025, MaxMem=  8053063680 cpu:            8271.3 elap:             190.3
 (Enter /export/g16/l508.exe)
 QCSCF skips out because SCF is already converged.
 Leave Link  508 at Wed Apr  9 18:05:38 2025, MaxMem=  8053063680 cpu:               5.8 elap:               0.2
 (Enter /export/g16/l601.exe)
 Copying SCF densities to generalized density rwf, IOpCl= 1 IROHF=0.

 **********************************************************************

            Population analysis using the SCF density.

 **********************************************************************

 Orbital symmetries:
 Alpha Orbitals:
       Occupied  (A) (A) (A) (A) (A) (A) (A) (A) (A) (A) (A) (A)
                 (A) (A) (A) (A) (A) (A) (A) (A) (A) (A) (A) (A)
                 (A) (A) (A) (A) (A) (A) (A) (A) (A) (A) (A) (A)
                 (A) (A) (A) (A) (A) (A) (A) (A) (A) (A) (A) (A)
                 (A) (A) (A) (A) (A) (A) (A) (A) (A) (A) (A) (A)
                 (A)
       Virtual   (A) (A) (A) (A) (A) (A) (A) (A) (A) (A) (A) (A)
                 (A) (A) (A) (A) (A) (A) (A) (A) (A) (A) (A) (A)
                 (A) (A) (A) (A) (A) (A) (A) (A) (A) (A) (A) (A)
                 (A) (A) (A) (A) (A) (A) (A) (A) (A) (A) (A) (A)
                 (A) (A) (A) (A) (A) (A) (A) (A) (A) (A) (A) (A)
                 (A) (A) (A) (A) (A) (A) (A) (A) (A) (A) (A) (A)
                 (A) (A) (A) (A) (A) (A) (A) (A) (A) (A) (A) (A)
                 (A) (A) (A) (A) (A) (A) (A) (A) (A) (A) (A) (A)
                 (A) (A) (A) (A) (A) (A) (A) (A) (A) (A) (A) (A)
                 (A) (A) (A) (A) (A) (A) (A) (A) (A) (A) (A) (A)
                 (A) (A) (A) (A) (A) (A) (A) (A) (A) (A) (A) (A)
                 (A) (A) (A) (A) (A) (A) (A) (A) (A) (A) (A) (A)
                 (A) (A) (A) (A) (A) (A) (A) (A) (A) (A) (A) (A)
                 (A) (A) (A) (A) (A) (A) (A) (A) (A) (A) (A) (A)
                 (A) (A) (A) (A) (A) (A) (A) (A) (A) (A) (A) (A)
                 (A) (A) (A) (A) (A) (A) (A) (A) (A) (A) (A) (A)
                 (A) (A) (A) (A) (A) (A) (A) (A) (A) (A) (A) (A)
                 (A) (A) (A) (A) (A) (A) (A) (A) (A) (A) (A) (A)
                 (A) (A) (A) (A) (A) (A) (A) (A) (A) (A) (A) (A)
                 (A) (A) (A) (A) (A) (A) (A) (A) (A) (A) (A) (A)
                 (A) (A) (A) (A) (A) (A) (A) (A) (A) (A) (A) (A)
                 (A) (A) (A) (A) (A) (A) (A) (A) (A) (A) (A) (A)
                 (A) (A) (A) (A) (A) (A) (A) (A) (A) (A) (A) (A)
                 (A) (A) (A) (A) (A) (A) (A)
 Beta  Orbitals:
       Occupied  (A) (A) (A) (A) (A) (A) (A) (A) (A) (A) (A) (A)
                 (A) (A) (A) (A) (A) (A) (A) (A) (A) (A) (A) (A)
                 (A) (A) (A) (A) (A) (A) (A) (A) (A) (A) (A) (A)
                 (A) (A) (A) (A) (A) (A) (A) (A) (A) (A) (A) (A)
                 (A) (A) (A) (A) (A) (A) (A) (A) (A) (A) (A) (A)
       Virtual   (A) (A) (A) (A) (A) (A) (A) (A) (A) (A) (A) (A)
                 (A) (A) (A) (A) (A) (A) (A) (A) (A) (A) (A) (A)
                 (A) (A) (A) (A) (A) (A) (A) (A) (A) (A) (A) (A)
                 (A) (A) (A) (A) (A) (A) (A) (A) (A) (A) (A) (A)
                 (A) (A) (A) (A) (A) (A) (A) (A) (A) (A) (A) (A)
                 (A) (A) (A) (A) (A) (A) (A) (A) (A) (A) (A) (A)
                 (A) (A) (A) (A) (A) (A) (A) (A) (A) (A) (A) (A)
                 (A) (A) (A) (A) (A) (A) (A) (A) (A) (A) (A) (A)
                 (A) (A) (A) (A) (A) (A) (A) (A) (A) (A) (A) (A)
                 (A) (A) (A) (A) (A) (A) (A) (A) (A) (A) (A) (A)
                 (A) (A) (A) (A) (A) (A) (A) (A) (A) (A) (A) (A)
                 (A) (A) (A) (A) (A) (A) (A) (A) (A) (A) (A) (A)
                 (A) (A) (A) (A) (A) (A) (A) (A) (A) (A) (A) (A)
                 (A) (A) (A) (A) (A) (A) (A) (A) (A) (A) (A) (A)
                 (A) (A) (A) (A) (A) (A) (A) (A) (A) (A) (A) (A)
                 (A) (A) (A) (A) (A) (A) (A) (A) (A) (A) (A) (A)
                 (A) (A) (A) (A) (A) (A) (A) (A) (A) (A) (A) (A)
                 (A) (A) (A) (A) (A) (A) (A) (A) (A) (A) (A) (A)
                 (A) (A) (A) (A) (A) (A) (A) (A) (A) (A) (A) (A)
                 (A) (A) (A) (A) (A) (A) (A) (A) (A) (A) (A) (A)
                 (A) (A) (A) (A) (A) (A) (A) (A) (A) (A) (A) (A)
                 (A) (A) (A) (A) (A) (A) (A) (A) (A) (A) (A) (A)
                 (A) (A) (A) (A) (A) (A) (A) (A) (A) (A) (A) (A)
                 (A) (A) (A) (A) (A) (A) (A) (A)
 The electronic state is 2-A.
 Alpha  occ. eigenvalues --  -19.69417 -19.64964 -10.63526 -10.63317 -10.58736
 Alpha  occ. eigenvalues --  -10.57396 -10.56731 -10.56518 -10.55693 -10.55457
 Alpha  occ. eigenvalues --  -10.53063 -10.53062 -10.52830 -10.52711 -10.52655
 Alpha  occ. eigenvalues --  -10.52655  -1.21872  -1.16040  -0.97641  -0.92976
 Alpha  occ. eigenvalues --   -0.90332  -0.84572  -0.81493  -0.77562  -0.77426
 Alpha  occ. eigenvalues --   -0.77163  -0.77136  -0.71381  -0.70131  -0.66248
 Alpha  occ. eigenvalues --   -0.62446  -0.59512  -0.57866  -0.55909  -0.53888
 Alpha  occ. eigenvalues --   -0.53722  -0.52490  -0.50622  -0.50603  -0.50163
 Alpha  occ. eigenvalues --   -0.49487  -0.48086  -0.47697  -0.46092  -0.45746
 Alpha  occ. eigenvalues --   -0.45253  -0.44090  -0.43713  -0.43252  -0.42410
 Alpha  occ. eigenvalues --   -0.42064  -0.41211  -0.40892  -0.39500  -0.38927
 Alpha  occ. eigenvalues --   -0.38361  -0.37592  -0.36980  -0.34100  -0.30219
 Alpha  occ. eigenvalues --   -0.25897
 Alpha virt. eigenvalues --    0.01759   0.01861   0.02711   0.02816   0.03296
 Alpha virt. eigenvalues --    0.04083   0.04366   0.04523   0.04706   0.04927
 Alpha virt. eigenvalues --    0.06425   0.06744   0.06887   0.06934   0.07206
 Alpha virt. eigenvalues --    0.07880   0.08090   0.09274   0.09512   0.09699
 Alpha virt. eigenvalues --    0.10873   0.10954   0.11424   0.11593   0.12325
 Alpha virt. eigenvalues --    0.12671   0.13284   0.13933   0.14902   0.15332
 Alpha virt. eigenvalues --    0.16106   0.16235   0.16299   0.17043   0.17507
 Alpha virt. eigenvalues --    0.18164   0.18549   0.18944   0.19024   0.19276
 Alpha virt. eigenvalues --    0.20048   0.20118   0.20468   0.21125   0.21804
 Alpha virt. eigenvalues --    0.22253   0.22270   0.22439   0.22712   0.22858
 Alpha virt. eigenvalues --    0.23597   0.24263   0.25111   0.25375   0.25669
 Alpha virt. eigenvalues --    0.26411   0.26854   0.27686   0.27767   0.28683
 Alpha virt. eigenvalues --    0.29427   0.29881   0.29886   0.30011   0.30265
 Alpha virt. eigenvalues --    0.31182   0.32215   0.32299   0.32402   0.32687
 Alpha virt. eigenvalues --    0.32861   0.32879   0.33229   0.33931   0.34132
 Alpha virt. eigenvalues --    0.34477   0.34729   0.34881   0.35654   0.35920
 Alpha virt. eigenvalues --    0.36577   0.37158   0.38018   0.38761   0.39380
 Alpha virt. eigenvalues --    0.39720   0.40611   0.41669   0.42805   0.43094
 Alpha virt. eigenvalues --    0.44182   0.44706   0.45313   0.47365   0.48327
 Alpha virt. eigenvalues --    0.50027   0.51042   0.53926   0.55818   0.57116
 Alpha virt. eigenvalues --    0.62352   0.68451   0.68834   0.69589   0.71686
 Alpha virt. eigenvalues --    0.72859   0.72961   0.74793   0.75293   0.75999
[...]
    17  C   -0.023064   0.000052  -0.002104  -0.000405   0.024619   0.004288
    18  H   -0.002104  -0.000002  -0.000113   0.000005   0.004288   0.000951
    19  H    0.000052   0.000000  -0.000002   0.000001  -0.000493   0.000096
    20  H   -0.000405   0.000001   0.000005  -0.000001  -0.001549  -0.000022
    21  C    0.004197  -0.000211   0.000113   0.000572   0.004194   0.000113
    22  H   -0.000324   0.000002  -0.000026  -0.000001  -0.000324  -0.000026
    23  H    0.001047  -0.000017   0.000033  -0.000002  -0.000431  -0.000005
    24  H   -0.000431   0.000000  -0.000005   0.000001   0.001047   0.000033
    25  C   -0.000373   0.000013  -0.000002  -0.000011  -0.000372  -0.000002
    26  C   -0.000143   0.000008  -0.000002   0.000001  -0.000143  -0.000002
    27  H   -0.000054   0.000000   0.000000   0.000000   0.000035   0.000000
    28  H    0.000000   0.000000   0.000000   0.000000   0.000000   0.000000
    29  H    0.000035   0.000000   0.000000   0.000000  -0.000054   0.000000
    30  C   -0.000815  -0.000004  -0.000001   0.000000   0.001222   0.000001
    31  H    0.000002   0.000000   0.000000   0.000000  -0.000003   0.000000
    32  H   -0.000002   0.000000   0.000000   0.000000   0.000003   0.000000
    33  H   -0.000001   0.000000   0.000000   0.000000   0.000004   0.000000
    34  C    0.001222   0.000015   0.000001  -0.000001  -0.000815  -0.000001
    35  H   -0.000003   0.000000   0.000000   0.000000   0.000002   0.000000
    36  H    0.000004   0.000000   0.000000   0.000000  -0.000001   0.000000
    37  H    0.000003   0.000000   0.000000   0.000000  -0.000002   0.000000
              19         20         21         22         23         24
     1  C   -0.000086   0.000040   0.002867  -0.000008   0.000018   0.000018
     2  C    0.000390  -0.000133  -0.006162  -0.000132  -0.000054  -0.000054
     3  C    0.000040   0.000319   0.000435   0.000045   0.000002   0.000002
     4  C    0.000362   0.001549  -0.000569  -0.000068  -0.000047  -0.000047
     5  C   -0.000169  -0.002053   0.010693  -0.000393   0.000819   0.000818
     6  C    0.000297  -0.000384  -0.005767  -0.000276  -0.000176  -0.000176
     7  H    0.000000   0.000000   0.000562   0.000002  -0.000016  -0.000016
     8  H    0.000000   0.000000   0.000004   0.000000   0.000000   0.000000
     9  O   -0.000002  -0.000001  -0.000119   0.000000   0.000000   0.000000
    10  H    0.000000   0.000000   0.000015   0.000000   0.000000   0.000000
    11  O    0.000025  -0.000156  -0.003637  -0.000002  -0.000002  -0.000002
    12  C   -0.000145   0.002591  -0.003594   0.001525  -0.001154  -0.001154
    13  C    0.000052  -0.000405   0.004197  -0.000324   0.001047  -0.000431
    14  H    0.000000   0.000001  -0.000211   0.000002  -0.000017   0.000000
    15  H   -0.000002   0.000005   0.000113  -0.000026   0.000033  -0.000005
    16  H    0.000001  -0.000001   0.000572  -0.000001  -0.000002   0.000001
    17  C   -0.000493  -0.001549   0.004194  -0.000324  -0.000431   0.001047
    18  H    0.000096  -0.000022   0.000113  -0.000026  -0.000005   0.000033
    19  H   -0.000499  -0.000027  -0.000211   0.000002   0.000000  -0.000017
    20  H   -0.000027  -0.001183   0.000572  -0.000001   0.000001  -0.000002
    21  C   -0.000211   0.000572  -0.003440   0.000104  -0.000143  -0.000143
    22  H    0.000002  -0.000001   0.000104  -0.000396   0.000030   0.000030
    23  H    0.000000   0.000001  -0.000143   0.000030   0.000327  -0.000095
    24  H   -0.000017  -0.000002  -0.000143   0.000030  -0.000095   0.000327
    25  C    0.000013  -0.000011   0.000777  -0.000001  -0.000020  -0.000020
    26  C    0.000008   0.000001  -0.000005  -0.000005   0.000017   0.000017
    27  H    0.000000   0.000000   0.000002   0.000000  -0.000003   0.000001
    28  H    0.000000   0.000000  -0.000009   0.000000   0.000000   0.000000
    29  H    0.000000   0.000000   0.000002   0.000000   0.000001  -0.000003
    30  C    0.000015  -0.000001   0.000186   0.000000  -0.000024   0.000043
    31  H    0.000000   0.000000  -0.000002   0.000000   0.000000   0.000000
    32  H    0.000000   0.000000   0.000002   0.000000   0.000000   0.000000
    33  H    0.000000   0.000000   0.000005   0.000000   0.000000   0.000000
    34  C   -0.000004   0.000000   0.000187   0.000000   0.000043  -0.000024
    35  H    0.000000   0.000000  -0.000002   0.000000   0.000000   0.000000
    36  H    0.000000   0.000000   0.000005   0.000000   0.000000   0.000000
    37  H    0.000000   0.000000   0.000002   0.000000   0.000000   0.000000
              25         26         27         28         29         30
     1  C    0.027033   0.005585  -0.000059  -0.000330  -0.000059  -0.007926
     2  C   -0.008877  -0.018003   0.000666  -0.000525   0.000667  -0.011826
     3  C   -0.001919  -0.002693   0.000066   0.000022   0.000066   0.005959
     4  C    0.022760   0.001786  -0.000054   0.000004  -0.000054  -0.002228
     5  C   -0.044220   0.008135  -0.000321  -0.000063  -0.000321   0.003109
     6  C   -0.000018   0.002064  -0.000248   0.000072  -0.000248  -0.007729
     7  H   -0.000143  -0.000566   0.000017   0.000000   0.000017   0.000045
     8  H   -0.000688   0.000010   0.000000   0.000000   0.000000  -0.000025
     9  O    0.001335   0.000062   0.000000   0.000000   0.000000  -0.000486
    10  H   -0.000072   0.000004   0.000000   0.000000   0.000000   0.000001
    11  O   -0.000217  -0.000052   0.000000   0.000000   0.000000  -0.000092
    12  C   -0.012353   0.006387   0.000002   0.000010   0.000002  -0.003208
    13  C   -0.000373  -0.000143  -0.000054   0.000000   0.000035  -0.000815
    14  H    0.000013   0.000008   0.000000   0.000000   0.000000  -0.000004
    15  H   -0.000002  -0.000002   0.000000   0.000000   0.000000  -0.000001
    16  H   -0.000011   0.000001   0.000000   0.000000   0.000000   0.000000
    17  C   -0.000372  -0.000143   0.000035   0.000000  -0.000054   0.001222
    18  H   -0.000002  -0.000002   0.000000   0.000000   0.000000   0.000001
    19  H    0.000013   0.000008   0.000000   0.000000   0.000000   0.000015
    20  H   -0.000011   0.000001   0.000000   0.000000   0.000000  -0.000001
    21  C    0.000777  -0.000005   0.000002  -0.000009   0.000002   0.000186
    22  H   -0.000001  -0.000005   0.000000   0.000000   0.000000   0.000000
    23  H   -0.000020   0.000017  -0.000003   0.000000   0.000001  -0.000024
    24  H   -0.000020   0.000017   0.000001   0.000000  -0.000003   0.000043
    25  C    0.019742  -0.010799   0.002672  -0.000832   0.002671  -0.001542
    26  C   -0.010799  -0.009163  -0.001266   0.001671  -0.001266   0.007566
    27  H    0.002672  -0.001266   0.000123   0.000032  -0.000081   0.001138
    28  H   -0.000832   0.001671   0.000032  -0.000705   0.000032   0.000083
    29  H    0.002671  -0.001266  -0.000081   0.000032   0.000124  -0.002628
    30  C   -0.001542   0.007566   0.001138   0.000083  -0.002628   0.068396
    31  H    0.002293   0.000304  -0.000010  -0.000045   0.000036  -0.006390
    32  H   -0.003174  -0.000101   0.000000   0.000001  -0.000002   0.001979
    33  H    0.003115  -0.000091   0.000000   0.000001  -0.000001  -0.001605
    34  C   -0.001552   0.007568  -0.002627   0.000083   0.001139  -0.049203
    35  H    0.002294   0.000304   0.000036  -0.000045  -0.000010   0.002517
    36  H    0.003115  -0.000091  -0.000001   0.000001   0.000000  -0.000451
    37  H   -0.003174  -0.000101  -0.000002   0.000001   0.000000  -0.000217
              31         32         33         34         35         36
     1  C   -0.001038   0.001115  -0.000174  -0.007934  -0.001038  -0.000174
     2  C    0.001762  -0.000210  -0.000304  -0.011812   0.001761  -0.000304
     3  C    0.000183  -0.000200   0.000000   0.005961   0.000183   0.000000
     4  C   -0.000059   0.000137  -0.000077  -0.002230  -0.000059  -0.000077
     5  C   -0.000151   0.000273   0.000014   0.003110  -0.000151   0.000014
     6  C    0.000124   0.000374  -0.000576  -0.007729   0.000124  -0.000576
     7  H    0.000000   0.000000  -0.000001   0.000045   0.000000  -0.000001
     8  H    0.000001  -0.000016  -0.000001  -0.000025   0.000001  -0.000001
     9  O    0.000001  -0.000005  -0.000002  -0.000486   0.000001  -0.000002
    10  H    0.000000   0.000000   0.000000   0.000001   0.000000   0.000000
    11  O    0.000000   0.000000   0.000000  -0.000092   0.000000   0.000000
    12  C    0.000013   0.000003  -0.000042  -0.003209   0.000013  -0.000042
    13  C    0.000002  -0.000002  -0.000001   0.001222  -0.000003   0.000004
    14  H    0.000000   0.000000   0.000000   0.000015   0.000000   0.000000
    15  H    0.000000   0.000000   0.000000   0.000001   0.000000   0.000000
    16  H    0.000000   0.000000   0.000000  -0.000001   0.000000   0.000000
    17  C   -0.000003   0.000003   0.000004  -0.000815   0.000002  -0.000001
    18  H    0.000000   0.000000   0.000000  -0.000001   0.000000   0.000000
    19  H    0.000000   0.000000   0.000000  -0.000004   0.000000   0.000000
    20  H    0.000000   0.000000   0.000000   0.000000   0.000000   0.000000
    21  C   -0.000002   0.000002   0.000005   0.000187  -0.000002   0.000005
    22  H    0.000000   0.000000   0.000000   0.000000   0.000000   0.000000
    23  H    0.000000   0.000000   0.000000   0.000043   0.000000   0.000000
    24  H    0.000000   0.000000   0.000000  -0.000024   0.000000   0.000000
    25  C    0.002293  -0.003174   0.003115  -0.001552   0.002294   0.003115
    26  C    0.000304  -0.000101  -0.000091   0.007568   0.000304  -0.000091
    27  H   -0.000010   0.000000   0.000000  -0.002627   0.000036  -0.000001
    28  H   -0.000045   0.000001   0.000001   0.000083  -0.000045   0.000001
    29  H    0.000036  -0.000002  -0.000001   0.001139  -0.000010   0.000000
    30  C   -0.006390   0.001979  -0.001605  -0.049203   0.002517  -0.000451
    31  H    0.003660  -0.000215  -0.000050   0.002517  -0.000327   0.000002
    32  H   -0.000215  -0.000511   0.000032  -0.000217   0.000032  -0.000001
    33  H   -0.000050   0.000032  -0.000807  -0.000451   0.000002   0.000000
    34  C    0.002517  -0.000217  -0.000451   0.068397  -0.006390  -0.001605
    35  H   -0.000327   0.000032   0.000002  -0.006390   0.003660  -0.000050
    36  H    0.000002  -0.000001   0.000000  -0.001605  -0.000050  -0.000807
    37  H    0.000032  -0.000030  -0.000001   0.001979  -0.000215   0.000032
              37
     1  C    0.001114
     2  C   -0.000210
     3  C   -0.000200
     4  C    0.000137
     5  C    0.000273
     6  C    0.000374
     7  H    0.000000
     8  H   -0.000016
     9  O   -0.000005
    10  H    0.000000
    11  O    0.000000
    12  C    0.000003
    13  C    0.000003
    14  H    0.000000
    15  H    0.000000
    16  H    0.000000
    17  C   -0.000002
    18  H    0.000000
    19  H    0.000000
    20  H    0.000000
    21  C    0.000002
    22  H    0.000000
    23  H    0.000000
    24  H    0.000000
    25  C   -0.003174
    26  C   -0.000101
    27  H   -0.000002
    28  H    0.000001
    29  H    0.000000
    30  C   -0.000217
    31  H    0.000032
    32  H   -0.000030
    33  H   -0.000001
    34  C    0.001979
    35  H   -0.000215
    36  H    0.000032
    37  H   -0.000511
 Mulliken charges and spin densities:
               1          2
     1  C   -0.177839  -0.168514
     2  C   -0.675449   0.377044
     3  C    0.401276   0.287916
     4  C    0.554313  -0.004339
     5  C   -0.219062   0.202291
     6  C   -0.588558  -0.066820
     7  H    0.238395  -0.000028
     8  H    0.272988   0.004075
     9  O   -0.687420   0.055835
    10  H    0.568313  -0.003663
    11  O   -0.658112   0.310144
    12  C   -0.151553  -0.008012
    13  C   -0.582516   0.012857
    14  H    0.242698  -0.000354
    15  H    0.235829   0.000792
    16  H    0.250683  -0.000849
    17  C   -0.582515   0.012857
    18  H    0.235829   0.000792
    19  H    0.242698  -0.000354
    20  H    0.250683  -0.000849
    21  C   -0.478254   0.001594
    22  H    0.239563  -0.000243
    23  H    0.243268   0.000148
    24  H    0.243268   0.000148
    25  C    0.024136  -0.002557
    26  C   -0.499628  -0.002994
    27  H    0.244148   0.000064
    28  H    0.240217  -0.000542
    29  H    0.244147   0.000064
    30  C   -0.568544  -0.004141
    31  H    0.240427   0.002640
    32  H    0.244725  -0.000738
    33  H    0.247618  -0.001012
    34  C   -0.568537  -0.004141
    35  H    0.240427   0.002640
    36  H    0.247618  -0.001012
    37  H    0.244723  -0.000738
 Sum of Mulliken charges =   0.00000   1.00000
 Mulliken charges and spin densities with hydrogens summed into heavy atoms:
               1          2
     1  C    0.095150  -0.164438
     2  C   -0.675449   0.377044
     3  C    0.401276   0.287916
     4  C    0.554313  -0.004339
     5  C   -0.219062   0.202291
     6  C   -0.350163  -0.066848
     9  O   -0.119108   0.052172
    11  O   -0.658112   0.310144
    12  C   -0.151553  -0.008012
    13  C    0.146695   0.012446
    17  C    0.146695   0.012446
    21  C    0.247844   0.001646
    25  C    0.024136  -0.002557
    26  C    0.228884  -0.003409
    30  C    0.164225  -0.003250
    34  C    0.164231  -0.003250
 Electronic spatial extent (au):  <R**2>=           4133.1277
 Charge=              0.0000 electrons
 Dipole moment (field-independent basis, Debye):
    X=              3.8346    Y=             -3.7623    Z=              0.0000  Tot=              5.3721
 Quadrupole moment (field-independent basis, Debye-Ang):
   XX=            -98.2160   YY=           -102.2793   ZZ=           -101.8113
   XY=              3.8664   XZ=              0.0000   YZ=              0.0000
 Traceless Quadrupole moment (field-independent basis, Debye-Ang):
   XX=              2.5529   YY=             -1.5105   ZZ=             -1.0424
   XY=              3.8664   XZ=              0.0000   YZ=              0.0000
 Octapole moment (field-independent basis, Debye-Ang**2):
  XXX=             40.4568  YYY=              4.6771  ZZZ=              0.0001  XYY=             -5.3587
  XXY=            -17.1608  XXZ=             -0.0001  XZZ=             -2.2294  YZZ=              2.7287
  YYZ=             -0.0001  XYZ=             -0.0001
 Hexadecapole moment (field-independent basis, Debye-Ang**3):
 XXXX=          -3509.2545 YYYY=          -1661.4488 ZZZZ=           -478.9903 XXXY=             44.6371
 XXXZ=             -0.0022 YYYX=            -58.4719 YYYZ=             -0.0022 ZZZX=             -0.0018
 ZZZY=             -0.0024 XXYY=           -849.9675 XXZZ=           -694.4327 YYZZ=           -356.0748
 XXYZ=             -0.0006 YYXZ=             -0.0009 ZZXY=            -10.5549
 N-N= 1.157569875312D+03 E-N=-3.931059850753D+03  KE= 6.902017022160D+02
 Leave Link  601 at Wed Apr  9 19:24:31 2025, MaxMem=  8053063680 cpu:              30.3 elap:               0.8
 (Enter /export/g16/l9999.exe)
 Electronic transition elements 
                 1             2             3             4             5 
      1  -0.696211D+03 -0.696209D+03 -0.696145D+03 -0.696123D+03 -0.696114D+03
      2   0.125396D-05  0.299175D+00 -0.704647D+00 -0.100807D-05  0.885212D+00
      3  -0.178895D-05 -0.458060D+00 -0.339565D+00 -0.172059D-05  0.158350D+00
      4  -0.578610D-02  0.282030D-05  0.139509D-05  0.138655D+00 -0.169003D-05
      5   0.000000D+00 -0.256114D-01  0.932549D-01  0.000000D+00 -0.146166D+00
      6   0.000000D+00  0.386574D-01  0.412753D-01  0.000000D+00 -0.263641D-01
      7  -0.129083D-02  0.000000D+00  0.000000D+00 -0.213348D-01  0.000000D+00
      8   0.369639D+00  0.000000D+00  0.000000D+00  0.230973D+00  0.000000D+00
      9   0.299657D+00 -0.350645D-05  0.000000D+00  0.656700D-01  0.244692D-05
     10  -0.335641D-05 -0.655533D+00 -0.109739D+00  0.000000D+00  0.475785D-01
     11   0.000000D+00 -0.217969D+00 -0.280684D-02  0.000000D+00  0.315006D+00
     12   0.102501D-05  0.225356D+00  0.204427D+00  0.203144D-05 -0.961406D-01
     13   0.000000D+00 -0.285849D-01 -0.111065D-01 -0.200852D-05  0.436020D-01
     14   0.000000D+00  0.274189D-02  0.288641D-01 -0.163885D-05 -0.172476D-01
     15  -0.119874D-01  0.000000D+00  0.114448D-05  0.559723D-01 -0.227267D-05
     16   0.141087D-01  0.000000D+00  0.000000D+00  0.559129D-01  0.000000D+00
                 6             7             8             9            10 
      1  -0.696111D+03 -0.696097D+03 -0.696095D+03 -0.696090D+03 -0.696086D+03
      2   0.279999D+00 -0.188482D-04  0.118191D+01  0.741197D+00  0.113307D-05
      3   0.936885D+00  0.197073D-05  0.154962D+00 -0.819623D-01 -0.196777D-05
      4  -0.351072D-05 -0.136406D-01 -0.147350D-05  0.000000D+00  0.705540D-01
      5  -0.465583D-01  0.405025D-05 -0.221591D+00 -0.143070D+00  0.000000D+00
      6  -0.162862D+00  0.000000D+00 -0.307132D-01  0.179872D-01  0.000000D+00
      7   0.000000D+00  0.289670D-02  0.111098D-05  0.000000D+00 -0.176729D-01
      8   0.000000D+00 -0.463179D-02 -0.108280D-05  0.000000D+00 -0.587573D+00
      9   0.134353D-05 -0.229542D+00  0.000000D+00  0.000000D+00 -0.876030D-02
     10   0.369985D+00 -0.200927D-05  0.293346D+00  0.265782D-01  0.000000D+00
     11   0.416014D+00 -0.585829D-05 -0.390202D-01  0.180250D+00  0.314906D-05
     12  -0.602267D+00  0.000000D+00  0.869882D-01 -0.116032D+00 -0.362830D-05
     13   0.118005D+00 -0.236691D-05  0.981265D-01 -0.134420D-01  0.000000D+00
     14  -0.208617D+00  0.958710D-05 -0.508236D+00  0.222377D+00  0.559196D-05
     15   0.000000D+00  0.430145D-01  0.252084D-05 -0.409286D-05 -0.319384D-01
     16   0.252426D-05  0.117455D-01 -0.136969D-05  0.000000D+00 -0.404303D-01
 1\1\GINC-C08\SP\UM062X TD-FC\6-31+G(d)\C14H21O2(2)\TALIPOVM\09-Apr-202
 5\0\\#p M062X/6-31+G(d) td(nstates=10) int(grid=ultrafine) scf(xqc,fer
 mi,maxcyc=200) scrf(check) guess(read) geom(allcheck)\\\0,2\C,0,-1.275
 9175794,1.4463825672,-0.0000089766\C,0,-1.3701862003,0.0494562478,-0.0
 000030308\C,0,-0.0298105104,2.0347581766,-0.0000102202\C,0,1.208195315
 1,1.2568016239,-0.0000056143\C,0,1.093094097,-0.193141429,-0.000000703
 7\C,0,-0.1757789014,-0.7299694399,0.0000000015\H,0,-0.281192363,-1.806
 5767931,0.0000043145\H,0,-2.1580174038,2.0800031682,-0.0000135357\O,0,
 0.1046560772,3.3704335204,-0.000015237\H,0,1.0666165004,3.5638489082,-
 0.0000146243\O,0,2.287978588,1.907520259,-0.0000064322\C,0,2.354084104
 9,-1.0526937423,0.0000042066\C,0,3.1866279215,-0.7560438631,-1.2611438
 014\H,0,2.6083447422,-0.9781675564,-2.1654363956\H,0,4.0792699273,-1.3
 92383452,-1.2641861608\H,0,3.5086585549,0.2868889501,-1.3024352604\C,0
 ,3.1866260655,-0.7560319275,1.2611506292\H,0,4.0792680054,-1.392371575
 9,1.2642004376\H,0,2.6083414986,-0.9781468871,2.1654444723\H,0,3.50865
 68016,0.2869012488,1.3024326137\C,0,2.0218943513,-2.5487462703,0.00001
 1007\H,0,2.9575886973,-3.1178562578,0.0000152473\H,0,1.4519961804,-2.8
 407082492,-0.8893845896\H,0,1.4519934173,-2.8406994737,0.889407723\C,0
 ,-2.7522221318,-0.5980547776,-0.0000034762\C,0,-2.6916883253,-2.128342
 0059,-0.0000241552\H,0,-2.183280703,-2.5166010204,-0.8895415403\H,0,-3
 .7132469675,-2.5226219477,-0.0000095287\H,0,-2.1832459092,-2.516623106
 6,0.889463838\C,0,-3.5180279631,-0.142194823,1.2553901328\H,0,-4.51023
 74521,-0.6074077667,1.2658509601\H,0,-3.6527244102,0.9437888154,1.2765
 9996\H,0,-2.9879173252,-0.4424503558,2.1662412276\C,0,-3.5180406288,-0
 .1421607062,-1.2553768305\H,0,-4.5102539064,-0.6073655674,-1.265835565
 7\H,0,-2.9879439723,-0.4423991983,-2.1662416994\H,0,-3.6527281929,0.94
 38247072,-1.2765593927\\Version=ES64L-G16RevA.03\State=2-A\HF=-696.280
 8079\S2=0.773256\S2-1=0.\S2A=0.750344\RMSD=3.546e-09\PG=C01 [X(C14H21O
 2)]\\@


 ALL MEN WHO EXPLORE
 DEPLORE
 THAT FRUSTRATING HURDLE
 THE GIRDLE.

         -- COLIN FLETCHER
 Job cpu time:       0 days 14 hours 44 minutes 16.2 seconds.
 Elapsed time:       0 days  0 hours 20 minutes 11.3 seconds.
 File lengths (MBytes):  RWF=   1131 Int=      0 D2E=      0 Chk=     77 Scr=      1
 Normal termination of Gaussian 16 at Wed Apr  9 19:24:32 2025.
