 Entering Gaussian System, Link 0=/export/g16/g16
 Input=SQ-c1.com
 Output=SQ-c1.log
 AtFile(1): SQ-c1.xyz
            C         -1.27993        1.46773        0.00000
            C         -1.40155        0.10190        0.00000
            C          0.00942        2.08791        0.00000
            C          1.19141        1.22862        0.00000
            C          1.09460       -0.16686        0.00000
            C         -0.20419       -0.68156        0.00000
            H         -0.31471       -1.75151        0.00000
            H         -2.13657        2.12750        0.00000
            O          0.19909        3.33296        0.00000
            O          2.35926        1.87992       -0.00000
            H          2.13281        2.83201       -0.00000
            C          2.34025       -1.06947        0.00000
            C          3.18404       -0.79558       -1.26383
            H          2.60773       -1.00923       -2.16738
            H          4.06497       -1.44244       -1.26630
            H          3.52331        0.23794       -1.31018
            C          3.18404       -0.79558        1.26383
            H          4.06497       -1.44244        1.26630
            H          2.60773       -1.00923        2.16738
            H          3.52331        0.23794        1.31018
            C          1.97002       -2.56161        0.00000
            H          2.88691       -3.15421       -0.00000
            H          1.39749       -2.84417       -0.88630
            H          1.39749       -2.84417        0.88630
            C         -2.79414       -0.55289        0.00000
            C         -2.73178       -2.08880        0.00002
            H         -2.22675       -2.47976       -0.88609
            H         -3.74777       -2.48832        0.00003
            H         -2.22676       -2.47974        0.88615
            C         -3.56644       -0.10445        1.25880
            H         -4.55953       -0.56019        1.26996
            H         -3.69571        0.97847        1.29106
            H         -3.04329       -0.40952        2.16807
            C         -3.56642       -0.10448       -1.25883
            H         -4.55950       -0.56022       -1.26999
            H         -3.04325       -0.40958       -2.16807
            H         -3.69568        0.97844       -1.29112
 Initial command:
 /export/g16/l1.exe "/tmp/talipovm/21604/Gau-3942244.inp" -scrdir="/tmp/talipovm/21604/"
 Entering Link 1 = /export/g16/l1.exe PID=   3942246.
  
 Copyright (c) 1988,1990,1992,1993,1995,1998,2003,2009,2016,
            Gaussian, Inc.  All Rights Reserved.
  
 This is part of the Gaussian(R) 16 program.  It is based on
 the Gaussian(R) 09 system (copyright 2009, Gaussian, Inc.),
 the Gaussian(R) 03 system (copyright 2003, Gaussian, Inc.),
 the Gaussian(R) 98 system (copyright 1998, Gaussian, Inc.),
 the Gaussian(R) 94 system (copyright 1995, Gaussian, Inc.),
 the Gaussian 92(TM) system (copyright 1992, Gaussian, Inc.),
 the Gaussian 90(TM) system (copyright 1990, Gaussian, Inc.),
 the Gaussian 88(TM) system (copyright 1988, Gaussian, Inc.),
 the Gaussian 86(TM) system (copyright 1986, Carnegie Mellon
 University), and the Gaussian 82(TM) system (copyright 1983,
 Carnegie Mellon University). Gaussian is a federally registered
 trademark of Gaussian, Inc.
  
 This software contains proprietary and confidential information,
 including trade secrets, belonging to Gaussian, Inc.
  
 This software is provided under written license and may be
 used, copied, transmitted, or stored only in accord with that
 written license.
  
 The following legend is applicable only to US Government
 contracts under FAR:
  
                    RESTRICTED RIGHTS LEGEND
  
 Use, reproduction and disclosure by the US Government is
 subject to restrictions as set forth in subparagraphs (a)
 and (c) of the Commercial Computer Software - Restricted
 Rights clause in FAR 52.227-19.
  
 Gaussian, Inc.
 340 Quinnipiac St., Bldg. 40, Wallingford CT 06492
  
  
 ---------------------------------------------------------------
 Warning -- This program may not be used in any manner that
 competes with the business of Gaussian, Inc. or will provide
 assistance to any competitor of Gaussian, Inc.  The licensee
 of this program is prohibited from giving any competitor of
 Gaussian, Inc. access to this program.  By using this program,
 the user acknowledges that Gaussian, Inc. is engaged in the
 business of creating and licensing software in the field of
 computational chemistry and represents and warrants to the
 licensee that it is not a competitor of Gaussian, Inc. and that
 it will not use this program in any manner prohibited above.
 ---------------------------------------------------------------
  

 Cite this work as:
 Gaussian 16, Revision A.03,
 M. J. Frisch, G. W. Trucks, H. B. Schlegel, G. E. Scuseria, 
 M. A. Robb, J. R. Cheeseman, G. Scalmani, V. Barone, 
 G. A. Petersson, H. Nakatsuji, X. Li, M. Caricato, A. V. Marenich, 
 J. Bloino, B. G. Janesko, R. Gomperts, B. Mennucci, H. P. Hratchian, 
 J. V. Ortiz, A. F. Izmaylov, J. L. Sonnenberg, D. Williams-Young, 
 F. Ding, F. Lipparini, F. Egidi, J. Goings, B. Peng, A. Petrone, 
 T. Henderson, D. Ranasinghe, V. G. Zakrzewski, J. Gao, N. Rega, 
 G. Zheng, W. Liang, M. Hada, M. Ehara, K. Toyota, R. Fukuda, 
 J. Hasegawa, M. Ishida, T. Nakajima, Y. Honda, O. Kitao, H. Nakai, 
 T. Vreven, K. Throssell, J. A. Montgomery, Jr., J. E. Peralta, 
 F. Ogliaro, M. J. Bearpark, J. J. Heyd, E. N. Brothers, K. N. Kudin, 
 V. N. Staroverov, T. A. Keith, R. Kobayashi, J. Normand, 
 K. Raghavachari, A. P. Rendell, J. C. Burant, S. S. Iyengar, 
 J. Tomasi, M. Cossi, J. M. Millam, M. Klene, C. Adamo, R. Cammi, 
 J. W. Ochterski, R. L. Martin, K. Morokuma, O. Farkas, 
 J. B. Foresman, and D. J. Fox, Gaussian, Inc., Wallingford CT, 2016.
 
 ******************************************
 Gaussian 16:  ES64L-G16RevA.03 25-Dec-2016
                 9-Apr-2025 
 ******************************************
 %nproc=44
 Will use up to   44 processors via shared memory.
 %mem=60Gb
 %chk=SQ-c1.chk
 ----------------------------------------------------------------------
 #p M062X/6-31+G(d) opt(tight) int(grid=ultrafine) scf(xqc,fermi,maxcyc
 =200) scrf(smd,solvent=water)
 ----------------------------------------------------------------------
 1/7=10,18=20,19=15,26=6,38=1/1,3;
 2/9=110,12=2,17=6,18=5,40=1/2;
 3/5=1,6=6,7=11,11=2,25=1,30=1,70=32201,71=1,72=1,74=-55,75=-5/1,2,3;
 4//1;
 5/5=2,7=200,8=3,13=1,22=13,38=5,53=1/2,8;
 6/7=2,8=2,9=2,10=2,28=1/1;
 7//1,2,3,16;
 1/7=10,18=20,19=15,26=6/3(2);
 2/9=110/2;
 99//99;
 2/9=110/2;
 3/5=1,6=6,7=11,11=2,25=1,30=1,70=32205,71=1,72=1,74=-55,75=-5/1,2,3;
 4/5=5,16=3,69=1/1;
 5/5=2,7=200,8=3,13=1,22=13,38=5,53=1/2,8;
 7//1,2,3,16;
 1/7=10,18=20,19=15,26=6/3(-5);
 2/9=110/2;
 6/7=2,8=2,9=2,10=2,19=2,28=1/1;
 99/9=1/99;
 Leave Link    1 at Wed Apr  9 18:02:22 2025, MaxMem=  8053063680 cpu:               6.5 elap:               0.2
 (Enter /export/g16/l101.exe)


 Symbolic Z-matrix:
 Charge =  0 Multiplicity = 2
 C                    -1.27993   1.46773   0. 
 C                    -1.40155   0.1019    0. 
 C                     0.00942   2.08791   0. 
 C                     1.19141   1.22862   0. 
 C                     1.0946   -0.16686   0. 
 C                    -0.20419  -0.68156   0. 
 H                    -0.31471  -1.75151   0. 
 H                    -2.13657   2.1275    0. 
 O                     0.19909   3.33296   0. 
 O                     2.35926   1.87992   0. 
 H                     2.13281   2.83201   0. 
 C                     2.34025  -1.06947   0. 
 C                     3.18404  -0.79558  -1.26383 
 H                     2.60773  -1.00923  -2.16738 
 H                     4.06497  -1.44244  -1.2663 
 H                     3.52331   0.23794  -1.31018 
 C                     3.18404  -0.79558   1.26383 
 H                     4.06497  -1.44244   1.2663 
 H                     2.60773  -1.00923   2.16738 
 H                     3.52331   0.23794   1.31018 
 C                     1.97002  -2.56161   0. 
 H                     2.88691  -3.15421   0. 
 H                     1.39749  -2.84417  -0.8863 
 H                     1.39749  -2.84417   0.8863 
 C                    -2.79414  -0.55289   0. 
 C                    -2.73178  -2.0888    0.00002 
 H                    -2.22675  -2.47976  -0.88609 
 H                    -3.74777  -2.48832   0.00003 
 H                    -2.22676  -2.47974   0.88615 
 C                    -3.56644  -0.10445   1.2588 
 H                    -4.55953  -0.56019   1.26996 
 H                    -3.69571   0.97847   1.29106 
 H                    -3.04329  -0.40952   2.16807 
 C                    -3.56642  -0.10448  -1.25883 
 H                    -4.5595   -0.56022  -1.26999 
 H                    -3.04325  -0.40958  -2.16807 
 H                    -3.69568   0.97844  -1.29112 
 
 ITRead=  0  0  0  0  0  0  0  0  0  0  0  0  0  0  0  0  0  0  0  0
 ITRead=  0  0  0  0  0  0  0  0  0  0  0  0  0  0  0  0  0
 MicOpt= -1 -1 -1 -1 -1 -1 -1 -1 -1 -1 -1 -1 -1 -1 -1 -1 -1 -1 -1 -1
 MicOpt= -1 -1 -1 -1 -1 -1 -1 -1 -1 -1 -1 -1 -1 -1 -1 -1 -1
 NAtoms=     37 NQM=       37 NQMF=       0 NMMI=      0 NMMIF=      0
                NMic=       0 NMicF=      0.
                    Isotopes and Nuclear Properties:
 (Nuclear quadrupole moments (NQMom) in fm**2, nuclear magnetic moments (NMagM)
  in nuclear magnetons)

  Atom         1           2           3           4           5           6           7           8           9          10
 IAtWgt=          12          12          12          12          12          12           1           1          16          16
 AtmWgt=  12.0000000  12.0000000  12.0000000  12.0000000  12.0000000  12.0000000   1.0078250   1.0078250  15.9949146  15.9949146
 NucSpn=           0           0           0           0           0           0           1           1           0           0
 AtZEff=   0.0000000   0.0000000   0.0000000   0.0000000   0.0000000   0.0000000   0.0000000   0.0000000   0.0000000   0.0000000
 NQMom=    0.0000000   0.0000000   0.0000000   0.0000000   0.0000000   0.0000000   0.0000000   0.0000000   0.0000000   0.0000000
 NMagM=    0.0000000   0.0000000   0.0000000   0.0000000   0.0000000   0.0000000   2.7928460   2.7928460   0.0000000   0.0000000
 AtZNuc=   6.0000000   6.0000000   6.0000000   6.0000000   6.0000000   6.0000000   1.0000000   1.0000000   8.0000000   8.0000000

  Atom        11          12          13          14          15          16          17          18          19          20
 IAtWgt=           1          12          12           1           1           1          12           1           1           1
 AtmWgt=   1.0078250  12.0000000  12.0000000   1.0078250   1.0078250   1.0078250  12.0000000   1.0078250   1.0078250   1.0078250
 NucSpn=           1           0           0           1           1           1           0           1           1           1
 AtZEff=   0.0000000   0.0000000   0.0000000   0.0000000   0.0000000   0.0000000   0.0000000   0.0000000   0.0000000   0.0000000
 NQMom=    0.0000000   0.0000000   0.0000000   0.0000000   0.0000000   0.0000000   0.0000000   0.0000000   0.0000000   0.0000000
 NMagM=    2.7928460   0.0000000   0.0000000   2.7928460   2.7928460   2.7928460   0.0000000   2.7928460   2.7928460   2.7928460
 AtZNuc=   1.0000000   6.0000000   6.0000000   1.0000000   1.0000000   1.0000000   6.0000000   1.0000000   1.0000000   1.0000000

  Atom        21          22          23          24          25          26          27          28          29          30
 IAtWgt=          12           1           1           1          12          12           1           1           1          12
 AtmWgt=  12.0000000   1.0078250   1.0078250   1.0078250  12.0000000  12.0000000   1.0078250   1.0078250   1.0078250  12.0000000
 NucSpn=           0           1           1           1           0           0           1           1           1           0
 AtZEff=   0.0000000   0.0000000   0.0000000   0.0000000   0.0000000   0.0000000   0.0000000   0.0000000   0.0000000   0.0000000
 NQMom=    0.0000000   0.0000000   0.0000000   0.0000000   0.0000000   0.0000000   0.0000000   0.0000000   0.0000000   0.0000000
 NMagM=    0.0000000   2.7928460   2.7928460   2.7928460   0.0000000   0.0000000   2.7928460   2.7928460   2.7928460   0.0000000
 AtZNuc=   6.0000000   1.0000000   1.0000000   1.0000000   6.0000000   6.0000000   1.0000000   1.0000000   1.0000000   6.0000000

  Atom        31          32          33          34          35          36          37
 IAtWgt=           1           1           1          12           1           1           1
 AtmWgt=   1.0078250   1.0078250   1.0078250  12.0000000   1.0078250   1.0078250   1.0078250
 NucSpn=           1           1           1           0           1           1           1
 AtZEff=   0.0000000   0.0000000   0.0000000   0.0000000   0.0000000   0.0000000   0.0000000
 NQMom=    0.0000000   0.0000000   0.0000000   0.0000000   0.0000000   0.0000000   0.0000000
 NMagM=    2.7928460   2.7928460   2.7928460   0.0000000   2.7928460   2.7928460   2.7928460
 AtZNuc=   1.0000000   1.0000000   1.0000000   6.0000000   1.0000000   1.0000000   1.0000000
 Leave Link  101 at Wed Apr  9 18:02:23 2025, MaxMem=  8053063680 cpu:              42.4 elap:               1.0
 (Enter /export/g16/l103.exe)

 GradGradGradGradGradGradGradGradGradGradGradGradGradGradGradGradGradGrad
 Berny optimization.
 Initialization pass.
                           ----------------------------
                           !    Initial Parameters    !
                           ! (Angstroms and Degrees)  !
 --------------------------                            --------------------------
 ! Name  Definition              Value          Derivative Info.                !
 --------------------------------------------------------------------------------
 ! R1    R(1,2)                  1.3712         estimate D2E/DX2                !
 ! R2    R(1,3)                  1.4308         estimate D2E/DX2                !
 ! R3    R(1,8)                  1.0813         estimate D2E/DX2                !
 ! R4    R(2,6)                  1.4309         estimate D2E/DX2                !
 ! R5    R(2,25)                 1.5388         estimate D2E/DX2                !
 ! R6    R(3,4)                  1.4613         estimate D2E/DX2                !
 ! R7    R(3,9)                  1.2594         estimate D2E/DX2                !
 ! R8    R(4,5)                  1.3988         estimate D2E/DX2                !
 ! R9    R(4,10)                 1.3372         estimate D2E/DX2                !
 ! R10   R(5,6)                  1.3971         estimate D2E/DX2                !
 ! R11   R(5,12)                 1.5383         estimate D2E/DX2                !
 ! R12   R(6,7)                  1.0756         estimate D2E/DX2                !
 ! R13   R(10,11)                0.9786         estimate D2E/DX2                !
 ! R14   R(12,13)                1.5441         estimate D2E/DX2                !
 ! R15   R(12,17)                1.5441         estimate D2E/DX2                !
 ! R16   R(12,21)                1.5374         estimate D2E/DX2                !
 ! R17   R(13,14)                1.0928         estimate D2E/DX2                !
 ! R18   R(13,15)                1.0929         estimate D2E/DX2                !
 ! R19   R(13,16)                1.0888         estimate D2E/DX2                !
 ! R20   R(17,18)                1.0929         estimate D2E/DX2                !
 ! R21   R(17,19)                1.0928         estimate D2E/DX2                !
 ! R22   R(17,20)                1.0888         estimate D2E/DX2                !
 ! R23   R(21,22)                1.0917         estimate D2E/DX2                !
 ! R24   R(21,23)                1.0923         estimate D2E/DX2                !
 ! R25   R(21,24)                1.0923         estimate D2E/DX2                !
 ! R26   R(25,26)                1.5372         estimate D2E/DX2                !
 ! R27   R(25,30)                1.5434         estimate D2E/DX2                !
 ! R28   R(25,34)                1.5434         estimate D2E/DX2                !
 ! R29   R(26,27)                1.0923         estimate D2E/DX2                !
 ! R30   R(26,28)                1.0917         estimate D2E/DX2                !
 ! R31   R(26,29)                1.0923         estimate D2E/DX2                !
 ! R32   R(30,31)                1.0927         estimate D2E/DX2                !
 ! R33   R(30,32)                1.0911         estimate D2E/DX2                !
 ! R34   R(30,33)                1.0925         estimate D2E/DX2                !
 ! R35   R(34,35)                1.0927         estimate D2E/DX2                !
 ! R36   R(34,36)                1.0925         estimate D2E/DX2                !
 ! R37   R(34,37)                1.0911         estimate D2E/DX2                !
 ! A1    A(2,1,3)              120.7761         estimate D2E/DX2                !
 ! A2    A(2,1,8)              122.5144         estimate D2E/DX2                !
 ! A3    A(3,1,8)              116.7095         estimate D2E/DX2                !
 ! A4    A(1,2,6)              118.1092         estimate D2E/DX2                !
 ! A5    A(1,2,25)             120.2712         estimate D2E/DX2                !
 ! A6    A(6,2,25)             121.6196         estimate D2E/DX2                !
 ! A7    A(1,3,4)              118.2957         estimate D2E/DX2                !
 ! A8    A(1,3,9)              124.3495         estimate D2E/DX2                !
 ! A9    A(4,3,9)              117.3548         estimate D2E/DX2                !
 ! A10   A(3,4,5)              122.0481         estimate D2E/DX2                !
 ! A11   A(3,4,10)             114.8353         estimate D2E/DX2                !
 ! A12   A(5,4,10)             123.1165         estimate D2E/DX2                !
 ! A13   A(4,5,6)              115.5865         estimate D2E/DX2                !
 ! A14   A(4,5,12)             121.959          estimate D2E/DX2                !
 ! A15   A(6,5,12)             122.4545         estimate D2E/DX2                !
 ! A16   A(2,6,5)              125.1843         estimate D2E/DX2                !
 ! A17   A(2,6,7)              117.3002         estimate D2E/DX2                !
 ! A18   A(5,6,7)              117.5154         estimate D2E/DX2                !
 ! A19   A(4,10,11)            105.7691         estimate D2E/DX2                !
 ! A20   A(5,12,13)            109.7808         estimate D2E/DX2                !
 ! A21   A(5,12,17)            109.7808         estimate D2E/DX2                !
 ! A22   A(5,12,21)            111.9926         estimate D2E/DX2                !
 ! A23   A(13,12,17)           109.8671         estimate D2E/DX2                !
 ! A24   A(13,12,21)           107.6833         estimate D2E/DX2                !
 ! A25   A(17,12,21)           107.6833         estimate D2E/DX2                !
 ! A26   A(12,13,14)           110.7249         estimate D2E/DX2                !
 ! A27   A(12,13,15)           109.7143         estimate D2E/DX2                !
 ! A28   A(12,13,16)           111.9318         estimate D2E/DX2                !
 ! A29   A(14,13,15)           107.9086         estimate D2E/DX2                !
 ! A30   A(14,13,16)           108.3442         estimate D2E/DX2                !
 ! A31   A(15,13,16)           108.0934         estimate D2E/DX2                !
 ! A32   A(12,17,18)           109.7143         estimate D2E/DX2                !
 ! A33   A(12,17,19)           110.7249         estimate D2E/DX2                !
 ! A34   A(12,17,20)           111.9318         estimate D2E/DX2                !
 ! A35   A(18,17,19)           107.9086         estimate D2E/DX2                !
 ! A36   A(18,17,20)           108.0934         estimate D2E/DX2                !
 ! A37   A(19,17,20)           108.3442         estimate D2E/DX2                !
 ! A38   A(12,21,22)           108.9404         estimate D2E/DX2                !
 ! A39   A(12,21,23)           112.1659         estimate D2E/DX2                !
 ! A40   A(12,21,24)           112.1659         estimate D2E/DX2                !
 ! A41   A(22,21,23)           107.445          estimate D2E/DX2                !
 ! A42   A(22,21,24)           107.445          estimate D2E/DX2                !
 ! A43   A(23,21,24)           108.4647         estimate D2E/DX2                !
 ! A44   A(2,25,26)            112.8577         estimate D2E/DX2                !
 ! A45   A(2,25,30)            109.2199         estimate D2E/DX2                !
 ! A46   A(2,25,34)            109.2196         estimate D2E/DX2                !
 ! A47   A(26,25,30)           108.0954         estimate D2E/DX2                !
 ! A48   A(26,25,34)           108.0954         estimate D2E/DX2                !
 ! A49   A(30,25,34)           109.2941         estimate D2E/DX2                !
 ! A50   A(25,26,27)           112.1096         estimate D2E/DX2                !
 ! A51   A(25,26,28)           109.1413         estimate D2E/DX2                !
 ! A52   A(25,26,29)           112.1096         estimate D2E/DX2                !
 ! A53   A(27,26,28)           107.4161         estimate D2E/DX2                !
 ! A54   A(27,26,29)           108.4362         estimate D2E/DX2                !
 ! A55   A(28,26,29)           107.415          estimate D2E/DX2                !
 ! A56   A(25,30,31)           109.9932         estimate D2E/DX2                !
 ! A57   A(25,30,32)           111.8252         estimate D2E/DX2                !
 ! A58   A(25,30,33)           110.9814         estimate D2E/DX2                !
 ! A59   A(31,30,32)           107.8164         estimate D2E/DX2                !
 ! A60   A(31,30,33)           108.0734         estimate D2E/DX2                !
 ! A61   A(32,30,33)           108.0159         estimate D2E/DX2                !
 ! A62   A(25,34,35)           109.9928         estimate D2E/DX2                !
 ! A63   A(25,34,36)           110.9808         estimate D2E/DX2                !
 ! A64   A(25,34,37)           111.825          estimate D2E/DX2                !
 ! A65   A(35,34,36)           108.0737         estimate D2E/DX2                !
 ! A66   A(35,34,37)           107.8171         estimate D2E/DX2                !
 ! A67   A(36,34,37)           108.0162         estimate D2E/DX2                !
 ! D1    D(3,1,2,6)              0.0            estimate D2E/DX2                !
 ! D2    D(3,1,2,25)           180.0            estimate D2E/DX2                !
 ! D3    D(8,1,2,6)            180.0            estimate D2E/DX2                !
 ! D4    D(8,1,2,25)             0.0            estimate D2E/DX2                !
 ! D5    D(2,1,3,4)              0.0            estimate D2E/DX2                !
 ! D6    D(2,1,3,9)            180.0            estimate D2E/DX2                !
 ! D7    D(8,1,3,4)            180.0            estimate D2E/DX2                !
 ! D8    D(8,1,3,9)              0.0            estimate D2E/DX2                !
 ! D9    D(1,2,6,5)              0.0            estimate D2E/DX2                !
 ! D10   D(1,2,6,7)            180.0            estimate D2E/DX2                !
 ! D11   D(25,2,6,5)           180.0            estimate D2E/DX2                !
 ! D12   D(25,2,6,7)             0.0            estimate D2E/DX2                !
 ! D13   D(1,2,25,26)         -179.9992         estimate D2E/DX2                !
 ! D14   D(1,2,25,30)          -59.7389         estimate D2E/DX2                !
 ! D15   D(1,2,25,34)           59.7407         estimate D2E/DX2                !
 ! D16   D(6,2,25,26)            0.0008         estimate D2E/DX2                !
 ! D17   D(6,2,25,30)          120.2611         estimate D2E/DX2                !
 ! D18   D(6,2,25,34)         -120.2593         estimate D2E/DX2                !
 ! D19   D(1,3,4,5)              0.0            estimate D2E/DX2                !
 ! D20   D(1,3,4,10)           180.0            estimate D2E/DX2                !
 ! D21   D(9,3,4,5)            180.0            estimate D2E/DX2                !
 ! D22   D(9,3,4,10)             0.0            estimate D2E/DX2                !
 ! D23   D(3,4,5,6)              0.0            estimate D2E/DX2                !
 ! D24   D(3,4,5,12)           180.0            estimate D2E/DX2                !
 ! D25   D(10,4,5,6)           180.0            estimate D2E/DX2                !
 ! D26   D(10,4,5,12)            0.0            estimate D2E/DX2                !
 ! D27   D(3,4,10,11)            0.0            estimate D2E/DX2                !
 ! D28   D(5,4,10,11)          180.0            estimate D2E/DX2                !
 ! D29   D(4,5,6,2)              0.0            estimate D2E/DX2                !
 ! D30   D(4,5,6,7)            180.0            estimate D2E/DX2                !
 ! D31   D(12,5,6,2)           180.0            estimate D2E/DX2                !
 ! D32   D(12,5,6,7)             0.0            estimate D2E/DX2                !
 ! D33   D(4,5,12,13)          -60.4366         estimate D2E/DX2                !
 ! D34   D(4,5,12,17)           60.4366         estimate D2E/DX2                !
 ! D35   D(4,5,12,21)          180.0            estimate D2E/DX2                !
 ! D36   D(6,5,12,13)          119.5634         estimate D2E/DX2                !
 ! D37   D(6,5,12,17)         -119.5634         estimate D2E/DX2                !
 ! D38   D(6,5,12,21)            0.0            estimate D2E/DX2                !
 ! D39   D(5,12,13,14)         -60.5965         estimate D2E/DX2                !
 ! D40   D(5,12,13,15)        -179.5976         estimate D2E/DX2                !
 ! D41   D(5,12,13,16)          60.4076         estimate D2E/DX2                !
 ! D42   D(17,12,13,14)        178.5825         estimate D2E/DX2                !
 ! D43   D(17,12,13,15)         59.5814         estimate D2E/DX2                !
 ! D44   D(17,12,13,16)        -60.4135         estimate D2E/DX2                !
 ! D45   D(21,12,13,14)         61.5691         estimate D2E/DX2                !
 ! D46   D(21,12,13,15)        -57.432          estimate D2E/DX2                !
 ! D47   D(21,12,13,16)       -177.4269         estimate D2E/DX2                !
 ! D48   D(5,12,17,18)         179.5976         estimate D2E/DX2                !
 ! D49   D(5,12,17,19)          60.5965         estimate D2E/DX2                !
 ! D50   D(5,12,17,20)         -60.4076         estimate D2E/DX2                !
 ! D51   D(13,12,17,18)        -59.5814         estimate D2E/DX2                !
 ! D52   D(13,12,17,19)       -178.5825         estimate D2E/DX2                !
 ! D53   D(13,12,17,20)         60.4135         estimate D2E/DX2                !
 ! D54   D(21,12,17,18)         57.432          estimate D2E/DX2                !
 ! D55   D(21,12,17,19)        -61.5691         estimate D2E/DX2                !
 ! D56   D(21,12,17,20)        177.4269         estimate D2E/DX2                !
 ! D57   D(5,12,21,22)         180.0            estimate D2E/DX2                !
 ! D58   D(5,12,21,23)          61.1808         estimate D2E/DX2                !
 ! D59   D(5,12,21,24)         -61.1808         estimate D2E/DX2                !
 ! D60   D(13,12,21,22)         59.2132         estimate D2E/DX2                !
 ! D61   D(13,12,21,23)        -59.6061         estimate D2E/DX2                !
 ! D62   D(13,12,21,24)        178.0324         estimate D2E/DX2                !
 ! D63   D(17,12,21,22)        -59.2132         estimate D2E/DX2                !
 ! D64   D(17,12,21,23)       -178.0324         estimate D2E/DX2                !
 ! D65   D(17,12,21,24)         59.6061         estimate D2E/DX2                !
 ! D66   D(2,25,26,27)         -61.1205         estimate D2E/DX2                !
 ! D67   D(2,25,26,28)         179.9994         estimate D2E/DX2                !
 ! D68   D(2,25,26,29)          61.1206         estimate D2E/DX2                !
 ! D69   D(30,25,26,27)        177.9767         estimate D2E/DX2                !
 ! D70   D(30,25,26,28)         59.0966         estimate D2E/DX2                !
 ! D71   D(30,25,26,29)        -59.7821         estimate D2E/DX2                !
 ! D72   D(34,25,26,27)         59.7819         estimate D2E/DX2                !
 ! D73   D(34,25,26,28)        -59.0982         estimate D2E/DX2                !
 ! D74   D(34,25,26,29)       -177.977          estimate D2E/DX2                !
 ! D75   D(2,25,30,31)         179.825          estimate D2E/DX2                !
 ! D76   D(2,25,30,32)          60.0603         estimate D2E/DX2                !
 ! D77   D(2,25,30,33)         -60.6302         estimate D2E/DX2                !
 ! D78   D(26,25,30,31)        -57.0343         estimate D2E/DX2                !
 ! D79   D(26,25,30,32)       -176.7991         estimate D2E/DX2                !
 ! D80   D(26,25,30,33)         62.5104         estimate D2E/DX2                !
 ! D81   D(34,25,30,31)         60.3915         estimate D2E/DX2                !
 ! D82   D(34,25,30,32)        -59.3733         estimate D2E/DX2                !
 ! D83   D(34,25,30,33)        179.9362         estimate D2E/DX2                !
 ! D84   D(2,25,34,35)        -179.8252         estimate D2E/DX2                !
 ! D85   D(2,25,34,36)          60.6303         estimate D2E/DX2                !
 ! D86   D(2,25,34,37)         -60.06           estimate D2E/DX2                !
 ! D87   D(26,25,34,35)         57.0343         estimate D2E/DX2                !
 ! D88   D(26,25,34,36)        -62.5101         estimate D2E/DX2                !
 ! D89   D(26,25,34,37)        176.7996         estimate D2E/DX2                !
 ! D90   D(30,25,34,35)        -60.3915         estimate D2E/DX2                !
 ! D91   D(30,25,34,36)       -179.936          estimate D2E/DX2                !
 ! D92   D(30,25,34,37)         59.3737         estimate D2E/DX2                !
 --------------------------------------------------------------------------------
 Trust Radius=3.00D-01 FncErr=5.00D-06 GrdErr=5.00D-06 EigMax=2.50D+02 EigMin=1.00D-04
 Number of steps in this run=    206 maximum allowed number of steps=    222.
 GradGradGradGradGradGradGradGradGradGradGradGradGradGradGradGradGradGrad

 Leave Link  103 at Wed Apr  9 18:02:23 2025, MaxMem=  8053063680 cpu:               3.1 elap:               0.2
 (Enter /export/g16/l202.exe)
                          Input orientation:                          
 ---------------------------------------------------------------------
 Center     Atomic      Atomic             Coordinates (Angstroms)
 Number     Number       Type             X           Y           Z
 ---------------------------------------------------------------------
      1          6           0       -1.279930    1.467730    0.000000
      2          6           0       -1.401550    0.101900    0.000000
      3          6           0        0.009420    2.087910    0.000000
      4          6           0        1.191410    1.228620    0.000000
      5          6           0        1.094600   -0.166860    0.000000
      6          6           0       -0.204190   -0.681560    0.000000
      7          1           0       -0.314710   -1.751510    0.000000
      8          1           0       -2.136570    2.127500    0.000000
      9          8           0        0.199090    3.332960    0.000000
     10          8           0        2.359260    1.879920    0.000000
     11          1           0        2.132810    2.832010    0.000000
     12          6           0        2.340250   -1.069470    0.000000
     13          6           0        3.184040   -0.795580   -1.263830
     14          1           0        2.607730   -1.009230   -2.167380
     15          1           0        4.064970   -1.442440   -1.266300
     16          1           0        3.523310    0.237940   -1.310180
     17          6           0        3.184040   -0.795580    1.263830
     18          1           0        4.064970   -1.442440    1.266300
     19          1           0        2.607730   -1.009230    2.167380
     20          1           0        3.523310    0.237940    1.310180
     21          6           0        1.970020   -2.561610    0.000000
     22          1           0        2.886910   -3.154210    0.000000
     23          1           0        1.397490   -2.844170   -0.886300
     24          1           0        1.397490   -2.844170    0.886300
     25          6           0       -2.794140   -0.552890    0.000000
     26          6           0       -2.731780   -2.088800    0.000020
     27          1           0       -2.226750   -2.479760   -0.886090
     28          1           0       -3.747770   -2.488320    0.000030
     29          1           0       -2.226760   -2.479740    0.886150
     30          6           0       -3.566440   -0.104450    1.258800
     31          1           0       -4.559530   -0.560190    1.269960
     32          1           0       -3.695710    0.978470    1.291060
     33          1           0       -3.043290   -0.409520    2.168070
     34          6           0       -3.566420   -0.104480   -1.258830
     35          1           0       -4.559500   -0.560220   -1.269990
     36          1           0       -3.043250   -0.409580   -2.168070
     37          1           0       -3.695680    0.978440   -1.291120
 ---------------------------------------------------------------------
                    Distance matrix (angstroms):
                    1          2          3          4          5
     1  C    0.000000
     2  C    1.371234   0.000000
     3  C    1.430750   2.436200   0.000000
     4  C    2.482880   2.827179   1.461328   0.000000
     5  C    2.882755   2.510577   2.502320   1.398834   0.000000
     6  C    2.403469   1.430902   2.777696   2.365690   1.397058
     7  H    3.360827   2.148569   3.853077   3.339098   2.120677
     8  H    1.081262   2.154834   2.146355   3.447236   3.962896
     9  O    2.380459   3.605800   1.259414   2.326574   3.612572
    10  O    3.662459   4.159934   2.359027   1.337186   2.405966
    11  H    3.675330   4.466005   2.249993   1.859326   3.173500
    12  C    4.420756   3.920864   3.924515   2.569251   1.538294
    13  C    5.162060   4.840493   4.471017   3.108895   2.521570
    14  H    5.093797   4.691106   4.587050   3.422203   2.774290
    15  H    6.216153   5.819909   5.523982   4.122551   3.471846
    16  H    5.128359   5.097973   4.181672   2.852328   2.789098
    17  C    5.162060   4.840493   4.471017   3.108895   2.521570
    18  H    6.216153   5.819909   5.523982   4.122551   3.471846
    19  H    5.093797   4.691106   4.587050   3.422203   2.774290
    20  H    5.128359   5.097973   4.181672   2.852328   2.789098
    21  C    5.176655   4.296716   5.045987   3.869377   2.549743
    22  H    6.222932   5.384528   5.979947   4.699353   3.483767
    23  H    5.152338   4.159264   5.199777   4.173202   2.836417
    24  H    5.152338   4.159264   5.199777   4.173202   2.836417
    25  C    2.525022   1.538849   3.851464   4.365591   3.907853
    26  C    3.841455   2.562943   4.995907   5.137771   4.281943
    27  H    4.155033   2.851505   5.162288   5.120650   4.143191
    28  H    4.662678   3.494852   5.921010   6.181516   5.370077
    29  H    4.155029   2.851508   5.162285   5.120652   4.143200
    30  C    3.047040   2.512749   4.379246   5.098901   4.828433
    31  H    4.059684   3.467564   5.431440   6.155156   5.808330
    32  H    2.782482   2.774596   4.077460   5.060964   5.091727
    33  H    3.366606   2.767199   4.500747   5.031572   4.677771
    34  C    3.047053   2.512749   4.379253   5.098897   4.828421
    35  H    4.059684   3.467553   5.431436   6.155143   5.808309
    36  H    3.366618   2.767186   4.500753   5.031558   4.677739
    37  H    2.782489   2.774589   4.077460   5.060951   5.091708
                    6          7          8          9         10
     6  C    0.000000
     7  H    1.075643   0.000000
     8  H    3.409532   4.285545   0.000000
     9  O    4.034725   5.110365   2.628391   0.000000
    10  O    3.623873   4.509701   4.502642   2.603394   0.000000
    11  H    4.219804   5.196057   4.327117   1.997554   0.978650
    12  C    2.573839   2.741166   5.501139   4.895504   2.949451
    13  C    3.618062   3.840875   6.200851   5.249003   3.071779
    14  H    3.565361   3.713377   6.086460   5.417905   3.620285
    15  H    4.517541   4.569534   7.266848   6.273196   3.943480
    16  H    4.056638   4.517176   6.109112   4.727172   2.401600
    17  C    3.618062   3.840875   6.200851   5.249003   3.071779
    18  H    4.517541   4.569534   7.266848   6.273196   3.943480
    19  H    3.565361   3.713377   6.086460   5.417905   3.620285
    20  H    4.056638   4.517176   6.109112   4.727172   2.401600
    21  C    2.874331   2.424098   6.233124   6.154848   4.458553
    22  H    3.958396   3.495417   7.289157   7.021948   5.061707
    23  H    2.833335   2.216092   6.163815   6.354418   4.901791
    24  H    2.833335   2.216092   6.163815   6.354418   4.901791
    25  C    2.593144   2.753954   2.759871   4.905024   5.698780
    26  C    2.892929   2.440490   4.258105   6.163236   6.455186
    27  H    2.847706   2.229664   4.692561   6.360626   6.389323
    28  H    3.977605   3.511238   4.888943   7.033136   7.508484
    29  H    2.847719   2.229690   4.692553   6.360620   6.389325
    30  C    3.636256   3.856311   2.934401   5.251627   6.374655
    31  H    4.538338   4.588087   3.834998   6.278047   7.445575
    32  H    4.075935   4.533298   2.327665   4.730743   6.256366
    33  H    3.582600   3.734517   3.458199   5.405526   6.255366
    34  C    3.636243   3.856291   2.934426   5.251639   6.374651
    35  H    4.538317   4.588059   3.835010   6.278049   7.445562
    36  H    3.582564   3.734466   3.458232   5.405544   6.255354
    37  H    4.075916   4.533274   2.327693   4.730749   6.256353
                   11         12         13         14         15
    11  H    0.000000
    12  C    3.906991   0.000000
    13  C    3.982683   1.544106   0.000000
    14  H    4.436013   2.184653   1.092786   0.000000
    15  H    4.858774   2.171930   1.092919   1.767248   0.000000
    16  H    3.221686   2.196707   1.088768   1.768760   1.766069
    17  C    3.982683   1.544106   2.527660   3.485826   2.756088
    18  H    4.858774   2.171930   2.756088   3.755180   2.532600
    19  H    4.436013   2.184653   3.485826   4.334760   3.755180
    20  H    3.221686   2.196707   2.794422   3.806198   3.123351
    21  C    5.396076   1.537385   2.487966   2.741185   2.691630
    22  H    6.033531   2.155221   2.692339   3.062094   2.433413
    23  H    5.791825   2.196334   2.744269   2.544180   3.037219
    24  H    5.791825   2.196334   3.465767   3.762532   3.703240
    25  C    5.977657   5.160312   6.115129   5.838320   7.031515
    26  C    6.919437   5.173444   6.186005   5.862888   6.943858
    27  H    6.928623   4.861231   5.679419   5.213095   6.387983
    28  H    7.930141   6.251170   7.246565   6.875882   7.983506
    29  H    6.928622   4.861245   6.060987   5.904129   6.730148
    30  C    6.533669   6.115949   7.239496   7.118828   8.148912
    31  H    7.609680   7.034140   8.150974   7.961568   9.032883
    32  H    6.250927   6.503361   7.550210   7.459565   8.522268
    33  H    6.480745   5.841110   7.120858   7.147713   7.961732
    34  C    6.533670   6.115931   6.785746   6.305883   7.747794
    35  H    7.609672   7.034114   7.747118   7.237134   8.669476
    36  H    6.480743   5.841066   6.304426   5.682707   7.239253
    37  H    6.250921   6.503336   7.104818   6.667206   8.129512
                   16         17         18         19         20
    16  H    0.000000
    17  C    2.794422   0.000000
    18  H    3.123351   1.092919   0.000000
    19  H    3.806198   1.092786   1.767248   0.000000
    20  H    2.620360   1.088768   1.766069   1.768760   0.000000
    21  C    3.459301   2.487966   2.691630   2.741185   3.459301
    22  H    3.691647   2.692339   2.433413   3.062094   3.691647
    23  H    3.768048   3.465767   3.703240   3.762532   4.340857
    24  H    4.340857   2.744269   3.037219   2.544180   3.768048
    25  C    6.500166   6.115129   7.031515   5.838320   6.500166
    26  C    6.801213   6.185997   6.943850   5.862874   6.801205
    27  H    6.374083   6.060963   6.730123   5.904095   6.728498
    28  H    7.875135   7.246554   7.983496   6.875863   7.875125
    29  H    6.728518   5.679418   6.387987   5.213084   6.374080
    30  C    7.548605   6.785769   7.747819   6.305911   7.098199
    31  H    8.522115   7.747149   8.669509   7.237169   8.122249
    32  H    7.709026   7.104854   8.129549   6.667252   7.256928
    33  H    7.459066   6.304469   7.239301   5.682753   6.653977
    34  C    7.098180   7.239485   8.148898   7.118821   7.548598
    35  H    8.122222   8.150954   9.032860   7.961552   8.522098
    36  H    6.653944   7.120820   7.961689   7.147677   7.459036
    37  H    7.256895   7.550196   8.522250   7.459560   7.709015
                   21         22         23         24         25
    21  C    0.000000
    22  H    1.091724   0.000000
    23  H    1.092318   1.760689   0.000000
    24  H    1.092318   1.760689   1.772600   0.000000
    25  C    5.170317   6.248295   4.858524   4.858524   0.000000
    26  C    4.725513   5.718809   4.290340   4.290332   1.537175
    27  H    4.290074   5.233503   3.642514   4.050837   2.195430
    28  H    5.718260   6.668012   5.233155   5.233145   2.157614
    29  H    4.290096   5.233526   4.050874   3.642526   2.195435
    30  C    6.186647   7.247851   6.062023   5.682026   1.543413
    31  H    6.946474   7.986940   6.734397   6.391388   2.174731
    32  H    6.804374   7.878881   6.730094   6.380995   2.196526
    33  H    5.870715   6.884847   5.914155   5.224077   2.187043
    34  C    6.186623   7.247825   5.681996   6.062004   1.543419
    35  H    6.946443   7.986907   6.391352   6.734370   2.174724
    36  H    5.870659   6.884789   5.224015   5.914100   2.187035
    37  H    6.804344   7.878850   6.380957   6.730073   2.196528
                   26         27         28         29         30
    26  C    0.000000
    27  H    1.092289   0.000000
    28  H    1.091720   1.760336   0.000000
    29  H    1.092294   1.772240   1.760328   0.000000
    30  C    2.493758   3.469499   2.701892   2.752383   0.000000
    31  H    2.700012   3.711491   2.447317   3.045291   1.092727
    32  H    3.464692   4.342486   3.699743   3.779019   1.091085
    33  H    2.759975   3.778958   3.085142   2.568239   1.092486
    34  C    2.493763   2.752382   2.701908   3.469508   2.517630
    35  H    2.700008   3.045281   2.447330   3.711492   2.754755
    36  H    2.759965   2.568227   3.085153   3.778952   3.479981
    37  H    3.464694   3.779015   3.699758   4.342492   2.773346
                   31         32         33         34         35
    31  H    0.000000
    32  H    1.764683   0.000000
    33  H    1.768696   1.766724   0.000000
    34  C    2.754763   2.773344   3.479994   0.000000
    35  H    2.539950   3.110093   3.760566   1.092717   0.000000
    36  H    3.760564   3.783909   4.336140   1.092479   1.768687
    37  H    3.110104   2.582180   3.783919   1.091085   1.764683
                   36         37
    36  H    0.000000
    37  H    1.766722   0.000000
 Stoichiometry    C14H21O2(2)
 Framework group  C1[X(C14H21O2)]
 Deg. of freedom   105
 Full point group                 C1      NOp   1
 Largest Abelian subgroup         C1      NOp   1
 Largest concise Abelian subgroup C1      NOp   1
                         Standard orientation:                         
 ---------------------------------------------------------------------
 Center     Atomic      Atomic             Coordinates (Angstroms)
 Number     Number       Type             X           Y           Z
 ---------------------------------------------------------------------
      1          6           0        1.279930    1.467731    0.000000
      2          6           0        1.401550    0.101901    0.000000
      3          6           0       -0.009420    2.087911    0.000000
      4          6           0       -1.191410    1.228621    0.000000
      5          6           0       -1.094600   -0.166859    0.000000
      6          6           0        0.204190   -0.681559    0.000000
      7          1           0        0.314710   -1.751509    0.000000
      8          1           0        2.136570    2.127501    0.000000
      9          8           0       -0.199090    3.332961    0.000000
     10          8           0       -2.359260    1.879921    0.000000
     11          1           0       -2.132810    2.832011    0.000000
     12          6           0       -2.340250   -1.069469    0.000000
     13          6           0       -3.184040   -0.795579    1.263830
     14          1           0       -2.607730   -1.009229    2.167380
     15          1           0       -4.064970   -1.442439    1.266300
     16          1           0       -3.523310    0.237941    1.310180
     17          6           0       -3.184040   -0.795579   -1.263830
     18          1           0       -4.064970   -1.442439   -1.266300
     19          1           0       -2.607730   -1.009229   -2.167380
     20          1           0       -3.523310    0.237941   -1.310180
     21          6           0       -1.970020   -2.561609    0.000000
     22          1           0       -2.886910   -3.154209    0.000000
     23          1           0       -1.397490   -2.844169    0.886300
     24          1           0       -1.397490   -2.844169   -0.886300
     25          6           0        2.794140   -0.552889    0.000000
     26          6           0        2.731780   -2.088799   -0.000020
     27          1           0        2.226750   -2.479759    0.886090
     28          1           0        3.747770   -2.488319   -0.000030
     29          1           0        2.226760   -2.479739   -0.886150
     30          6           0        3.566440   -0.104449   -1.258800
     31          1           0        4.559530   -0.560189   -1.269960
     32          1           0        3.695710    0.978471   -1.291060
     33          1           0        3.043290   -0.409519   -2.168070
     34          6           0        3.566420   -0.104479    1.258830
     35          1           0        4.559500   -0.560219    1.269990
     36          1           0        3.043250   -0.409579    2.168070
     37          1           0        3.695680    0.978441    1.291120
 ---------------------------------------------------------------------
 Rotational constants (GHZ):           0.7424174           0.3809525           0.2833182
 Leave Link  202 at Wed Apr  9 18:02:23 2025, MaxMem=  8053063680 cpu:               7.7 elap:               0.2
 (Enter /export/g16/l301.exe)
 Standard basis: 6-31+G(d) (6D, 7F)
 Ernie: Thresh=  0.10000D-02 Tol=  0.10000D-05 Strict=F.
 There are   346 symmetry adapted cartesian basis functions of A   symmetry.
 There are   346 symmetry adapted basis functions of A   symmetry.
   346 basis functions,   596 primitive gaussians,   346 cartesian basis functions
    61 alpha electrons       60 beta electrons
       nuclear repulsion energy      1155.8716250453 Hartrees.
 IExCor= 4336 DFT=T Ex+Corr=M062X ExCW=0 ScaHFX=  0.540000
 ScaDFX=  1.000000  1.000000  1.000000  1.000000 ScalE2=  1.000000  1.000000
 IRadAn=      5 IRanWt=     -1 IRanGd=            0 ICorTp=0 IEmpDi=  4
 NAtoms=   37 NActive=   37 NUniq=   37 SFac= 1.00D+00 NAtFMM=   60 NAOKFM=F Big=F
 Integral buffers will be    131072 words long.
 Raffenetti 2 integral format.
 Two-electron integral symmetry is turned on.
 ------------------------------------------------------------------------------
 Polarizable Continuum Model (PCM)
 =================================
 Model                : PCM.
 Atomic radii         : SMD-Coulomb.
 Polarization charges : Total charges.
 Charge compensation  : None.
 Solution method      : On-the-fly selection.
 Cavity type          : VdW (van der Waals Surface) (Alpha=1.000).
 Cavity algorithm     : GePol (No added spheres)
                        Default sphere list used, NSphG=   37.
                        Lebedev-Laikov grids with approx.  5.0 points / Ang**2.
                        Smoothing algorithm: York/Karplus (Gamma=1.0000).
                        Polarization charges: spherical gaussians, with
                                              point-specific exponents (IZeta= 3).
                        Self-potential: point-specific (ISelfS= 7).
                        Self-field    : sphere-specific E.n sum rule (ISelfD= 2).
 1st derivatives      : Analytical E(r).r(x)/FMM algorithm (CHGder, D1EAlg=3).
                        Cavity 1st derivative terms included.
 Solvent              : Water, Eps=  78.355300 Eps(inf)=   1.777849
 ------------------------------------------------------------------------------
 GePol: Number of generator spheres                  =      37
 GePol: Total number of spheres                      =      37
 GePol: Number of exposed spheres                    =      37 (100.00%)
 GePol: Number of points                             =    2426
 GePol: Average weight of points                     =       0.11
 GePol: Minimum weight of points                     =   0.28D-09
 GePol: Maximum weight of points                     =    0.21991
 GePol: Number of points with low weight             =     132
 GePol: Fraction of low-weight points (<1% of avg)   =       5.44%
 GePol: Cavity surface area                          =    270.123 Ang**2
 GePol: Cavity volume                                =    243.774 Ang**3
 ------------------------------------------------------------------------------
 Atomic radii for non-electrostatic terms: SMD-CDS.
 ------------------------------------------------------------------------------
 PCM non-electrostatic energy =         0.0117913893 Hartrees.
 Nuclear repulsion after PCM non-electrostatic terms =     1155.8834164345 Hartrees.
 Leave Link  301 at Wed Apr  9 18:02:24 2025, MaxMem=  8053063680 cpu:              11.5 elap:               0.3
 (Enter /export/g16/l302.exe)
 NPDir=0 NMtPBC=     1 NCelOv=     1 NCel=       1 NClECP=     1 NCelD=      1
         NCelK=      1 NCelE2=     1 NClLst=     1 CellRange=     0.0.
 One-electron integrals computed using PRISM.
 One-electron integral symmetry used in STVInt
 NBasis=   346 RedAO= T EigKep=  1.36D-06  NBF=   346
 NBsUse=   344 1.00D-06 EigRej=  5.97D-07 NBFU=   344
 Precomputing XC quadrature grid using
 IXCGrd= 4 IRadAn=           5 IRanWt=          -1 IRanGd=           0 AccXCQ= 0.00D+00.
 Generated NRdTot=       0 NPtTot=           0 NUsed=           0 NTot=          32
 NSgBfM=   345   345   345   345   345 MxSgAt=    37 MxSgA2=    37.
 Leave Link  302 at Wed Apr  9 18:02:25 2025, MaxMem=  8053063680 cpu:              31.6 elap:               0.8
 (Enter /export/g16/l303.exe)
 DipDrv:  MaxL=1.
 Leave Link  303 at Wed Apr  9 18:02:25 2025, MaxMem=  8053063680 cpu:              15.3 elap:               0.5
 (Enter /export/g16/l401.exe)
 ExpMin= 4.38D-02 ExpMax= 5.48D+03 ExpMxC= 8.25D+02 IAcc=3 IRadAn=         5 AccDes= 0.00D+00
 Harris functional with IExCor= 1009 and IRadAn=       5 diagonalized for initial guess.
 HarFok:  IExCor= 1009 AccDes= 0.00D+00 IRadAn=         5 IDoV= 1 UseB2=F ITyADJ=14
 ICtDFT=  3500011 ScaDFX=  1.000000  1.000000  1.000000  1.000000
 FoFCou: FMM=F IPFlag=           0 FMFlag=      100000 FMFlg1=           0
         NFxFlg=           0 DoJE=T BraDBF=F KetDBF=T FulRan=T
         wScrn=  0.000000 ICntrl=       500 IOpCl=  0 I1Cent=   200000004 NGrid=           0
         NMat0=    1 NMatS0=      1 NMatT0=    0 NMatD0=    1 NMtDS0=    0 NMtDT0=    0
 Petite list used in FoFCou.
 Harris En= -696.012909294756    
 JPrj=0 DoOrth=F DoCkMO=F.
 Initial guess <Sx>= 0.0000 <Sy>= 0.0000 <Sz>= 0.5000 <S**2>= 0.7500 S= 0.5000
 Leave Link  401 at Wed Apr  9 18:02:27 2025, MaxMem=  8053063680 cpu:              85.7 elap:               2.1
 (Enter /export/g16/l502.exe)
 Integral symmetry usage will be decided dynamically.
 UHF open shell SCF:
 Using DIIS extrapolation, IDIIS=    10.
 NGot=  8053063680 LenX=  8052805161 LenY=  8052685004
 Requested convergence on RMS density matrix=1.00D-08 within 128 cycles.
 Requested convergence on MAX density matrix=1.00D-06.
 Requested convergence on             energy=1.00D-06.
 Level shift goal  0.100 maximum shift  0.100.
 No special actions if energy rises.
 Dynamic level shift is on during FON iterations.
 Fock matrices will be formed incrementally for  20 cycles.

 Cycle   1  Pass 1  IDiag  1:
 FoFJK:  IHMeth= 1 ICntrl=       0 DoSepK=F KAlg= 0 I1Cent=           0 FoldK=F
 IRaf= 900000000 NMat=       1 IRICut=       1 DoRegI=T DoRafI=F ISym2E= 0 IDoP0=0 IntGTp=1.
 FoFCou: FMM=F IPFlag=           0 FMFlag=      100000 FMFlg1=           0
         NFxFlg=           0 DoJE=F BraDBF=F KetDBF=F FulRan=T
         wScrn=  0.000000 ICntrl=         0 IOpCl=  1 I1Cent=           0 NGrid=           0
         NMat0=    1 NMatS0=      1 NMatT0=    0 NMatD0=    1 NMtDS0=    0 NMtDT0=    0
 Symmetry not used in FoFCou.
 Inv3:  Mode=1 IEnd=    17656428.
 Iteration    1 A*A^-1 deviation from unit magnitude is 9.55D-15 for    263.
 Iteration    1 A*A^-1 deviation from orthogonality  is 4.24D-15 for   2056    799.
 Iteration    1 A^-1*A deviation from unit magnitude is 9.21D-15 for    263.
 Iteration    1 A^-1*A deviation from orthogonality  is 6.05D-14 for   1470   1447.
 E= -695.791030630302    
 DIIS: error= 5.10D-02 at cycle   1 NSaved=   1.
 NSaved= 1 IEnMin= 1 EnMin= -695.791030630302     IErMin= 1 ErrMin= 5.10D-02
 ErrMax= 5.10D-02  0.00D+00 EMaxC= 1.00D+00 BMatC= 2.04D+00 BMatP= 2.04D+00
 IDIUse=1 WtCom= 1.00D+00 WtEn= 0.00D+00
 Coeff-Com:  0.100D+01
 Coeff:      0.100D+01
 Gap=     0.282 Goal=     0.100 Shift=    0.000
 T= 1815. Gap= 0.215 NK=0 IS=   62 IE=  344 IFin=   61
          NO(<0.9)=   0  NV(>0.1)=   0     61.00e < EF      0.00e >EF  Err=0.0D+00
 Gap=     0.152 Goal=     0.100 Shift=    0.000
 T= 1815. Gap= 0.139 NK=0 IS=    1 IE=  344 IFin=   61
          NO(<0.9)=   0  NV(>0.1)=   0     60.00e < EF      0.00e >EF  Err=0.0D+00
 GapD=    0.152 DampG=1.000 DampE=0.500 DampFc=0.5000 IDamp=-1.
 Damping current iteration by 5.00D-01
 RMSDP=3.74D-02 MaxDP=2.39D+00              OVMax= 1.78D-01

 Cycle   2  Pass 1  IDiag  1:
 RMSU=  1.83D-02    CP:  1.07D+00
 E= -696.043630751850     Delta-E=       -0.252600121548 Rises=F Damp=T
 DIIS: error= 1.33D-02 at cycle   2 NSaved=   2.
 NSaved= 2 IEnMin= 2 EnMin= -696.043630751850     IErMin= 2 ErrMin= 1.33D-02
 ErrMax= 1.33D-02  0.00D+00 EMaxC= 1.00D+00 BMatC= 1.36D-01 BMatP= 2.04D+00
 IDIUse=1 WtCom= 1.00D+00 WtEn= 0.00D+00
 Coeff-Com: -0.111D+00 0.111D+01
 Coeff:     -0.111D+00 0.111D+01
 Gap=     0.287 Goal=     0.100 Shift=    0.000
 T= 1645. Gap= 0.272 NK=4 IS=   62 IE=   87 IFin=   61
          NO(<0.9)=   0  NV(>0.1)=   0     61.00e < EF      0.00e >EF  Err=0.0D+00
 Gap=     0.183 Goal=     0.100 Shift=    0.000
 T= 1645. Gap= 0.173 NK=4 IS=   61 IE=   87 IFin=   60
          NO(<0.9)=   0  NV(>0.1)=   0     60.00e < EF      0.00e >EF  Err=0.0D+00
 GapD=    0.183 DampG=1.000 DampE=0.500 DampFc=0.5000 IDamp=-1.
 Damping current iteration by 5.00D-01
 RMSDP=1.63D-02 MaxDP=1.66D+00 DE=-2.53D-01 OVMax= 8.94D-02

 Cycle   3  Pass 1  IDiag  1:
 RMSU=  3.88D-03    CP:  9.50D-01  9.59D-01
 E= -696.158561592274     Delta-E=       -0.114930840424 Rises=F Damp=T
 DIIS: error= 6.39D-03 at cycle   3 NSaved=   3.
 NSaved= 3 IEnMin= 3 EnMin= -696.158561592274     IErMin= 3 ErrMin= 6.39D-03
 ErrMax= 6.39D-03  0.00D+00 EMaxC= 1.00D+00 BMatC= 3.38D-02 BMatP= 1.36D-01
 IDIUse=1 WtCom= 1.00D+00 WtEn= 0.00D+00
 Coeff-Com: -0.784D-01-0.294D+00 0.137D+01
 Coeff:     -0.784D-01-0.294D+00 0.137D+01
 Gap=     0.286 Goal=     0.100 Shift=    0.000
 T= 1352. Gap= 0.276 NK=4 IS=   62 IE=   87 IFin=   61
          NO(<0.9)=   0  NV(>0.1)=   0     61.00e < EF      0.00e >EF  Err=0.0D+00
 Gap=     0.179 Goal=     0.100 Shift=    0.000
 T= 1352. Gap= 0.179 NK=4 IS=   61 IE=   87 IFin=   60
          NO(<0.9)=   0  NV(>0.1)=   0     60.00e < EF      0.00e >EF  Err=0.0D+00
 GapD=    0.179 DampG=1.000 DampE=1.000 DampFc=1.0000 IDamp=-1.
 RMSDP=6.10D-03 MaxDP=6.10D-01 DE=-1.15D-01 OVMax= 3.59D-02

 Cycle   4  Pass 1  IDiag  1:
 RMSU=  1.85D-03    CP:  8.71D-01  9.36D-01  1.83D+00
 E= -696.274146225532     Delta-E=       -0.115584633259 Rises=F Damp=F
 DIIS: error= 4.05D-03 at cycle   4 NSaved=   4.
 NSaved= 4 IEnMin= 4 EnMin= -696.274146225532     IErMin= 4 ErrMin= 4.05D-03
 ErrMax= 4.05D-03  0.00D+00 EMaxC= 1.00D+00 BMatC= 1.29D-02 BMatP= 3.38D-02
 IDIUse=1 WtCom= 1.00D+00 WtEn= 0.00D+00
 Coeff-Com: -0.227D-01-0.316D+00 0.751D+00 0.588D+00
 Coeff:     -0.227D-01-0.316D+00 0.751D+00 0.588D+00
 Gap=     0.282 Goal=     0.100 Shift=    0.000
 T=  697. Gap= 0.282 NK=4 IS=   62 IE=   87 IFin=   61
          NO(<0.9)=   0  NV(>0.1)=   0     61.00e < EF      0.00e >EF  Err=0.0D+00
 Gap=     0.178 Goal=     0.100 Shift=    0.000
 T=  697. Gap= 0.178 NK=4 IS=   61 IE=   87 IFin=   60
          NO(<0.9)=   0  NV(>0.1)=   0     60.00e < EF      0.00e >EF  Err=0.0D+00
 GapD=    0.178 DampG=1.000 DampE=1.000 DampFc=1.0000 IDamp=-1.
 RMSDP=8.59D-04 MaxDP=4.48D-02 DE=-1.16D-01 OVMax= 1.21D-02

 Cycle   5  Pass 1  IDiag  1:
 RMSU=  5.73D-04    CP:  8.63D-01  9.30D-01  1.86D+00  8.22D-01
 E= -696.276753975419     Delta-E=       -0.002607749887 Rises=F Damp=F
 DIIS: error= 7.46D-04 at cycle   5 NSaved=   5.
 NSaved= 5 IEnMin= 5 EnMin= -696.276753975419     IErMin= 5 ErrMin= 7.46D-04
 ErrMax= 7.46D-04  0.00D+00 EMaxC= 1.00D+00 BMatC= 3.22D-04 BMatP= 1.29D-02
 IDIUse=1 WtCom= 1.00D+00 WtEn= 0.00D+00
 Coeff-Com: -0.482D-02-0.113D+00 0.240D+00 0.213D+00 0.664D+00
 Coeff:     -0.482D-02-0.113D+00 0.240D+00 0.213D+00 0.664D+00
 Gap=     0.281 Goal=     0.100 Shift=    0.000
 Gap=     0.180 Goal=     0.100 Shift=    0.000
 RMSDP=6.20D-04 MaxDP=5.24D-02 DE=-2.61D-03 OVMax= 7.91D-03

 Cycle   6  Pass 1  IDiag  1:
 RMSU=  2.42D-04    CP:  8.55D-01  9.13D-01  1.87D+00  7.79D-01  1.05D+00
 E= -696.276900833937     Delta-E=       -0.000146858517 Rises=F Damp=F
 DIIS: error= 4.40D-04 at cycle   6 NSaved=   6.
 NSaved= 6 IEnMin= 6 EnMin= -696.276900833937     IErMin= 6 ErrMin= 4.40D-04
 ErrMax= 4.40D-04  0.00D+00 EMaxC= 1.00D+00 BMatC= 7.34D-05 BMatP= 3.22D-04
 IDIUse=1 WtCom= 1.00D+00 WtEn= 0.00D+00
 Coeff-Com:  0.449D-02 0.408D-01-0.106D+00-0.950D-01 0.115D+00 0.104D+01
 Coeff:      0.449D-02 0.408D-01-0.106D+00-0.950D-01 0.115D+00 0.104D+01
 Gap=     0.283 Goal=     0.100 Shift=    0.000
 Gap=     0.181 Goal=     0.100 Shift=    0.000
 RMSDP=1.76D-04 MaxDP=1.09D-02 DE=-1.47D-04 OVMax= 1.05D-02

 Cycle   7  Pass 1  IDiag  1:
 RMSU=  1.05D-04    CP:  8.54D-01  9.07D-01  1.87D+00  7.87D-01  1.16D+00
                    CP:  1.03D+00
 E= -696.276989713562     Delta-E=       -0.000088879626 Rises=F Damp=F
 DIIS: error= 3.30D-04 at cycle   7 NSaved=   7.
 NSaved= 7 IEnMin= 7 EnMin= -696.276989713562     IErMin= 7 ErrMin= 3.30D-04
 ErrMax= 3.30D-04  0.00D+00 EMaxC= 1.00D+00 BMatC= 2.42D-05 BMatP= 7.34D-05
 IDIUse=1 WtCom= 1.00D+00 WtEn= 0.00D+00
 Coeff-Com:  0.247D-02 0.349D-01-0.799D-01-0.876D-01-0.135D+00 0.265D+00
 Coeff-Com:  0.100D+01
 Coeff:      0.247D-02 0.349D-01-0.799D-01-0.876D-01-0.135D+00 0.265D+00
 Coeff:      0.100D+01
 Gap=     0.283 Goal=     0.100 Shift=    0.000
 Gap=     0.182 Goal=     0.100 Shift=    0.000
 RMSDP=1.29D-04 MaxDP=9.14D-03 DE=-8.89D-05 OVMax= 8.73D-03

 Cycle   8  Pass 1  IDiag  1:
 RMSU=  4.64D-05    CP:  8.53D-01  9.03D-01  1.87D+00  7.85D-01  1.23D+00
                    CP:  1.16D+00  1.46D+00
 E= -696.277027304520     Delta-E=       -0.000037590958 Rises=F Damp=F
 DIIS: error= 1.59D-04 at cycle   8 NSaved=   8.
 NSaved= 8 IEnMin= 8 EnMin= -696.277027304520     IErMin= 8 ErrMin= 1.59D-04
 ErrMax= 1.59D-04  0.00D+00 EMaxC= 1.00D+00 BMatC= 1.01D-05 BMatP= 2.42D-05
 IDIUse=1 WtCom= 1.00D+00 WtEn= 0.00D+00
 Coeff-Com: -0.363D-03-0.297D-02 0.905D-02-0.789D-02-0.802D-01-0.243D+00
 Coeff-Com:  0.395D+00 0.930D+00
 Coeff:     -0.363D-03-0.297D-02 0.905D-02-0.789D-02-0.802D-01-0.243D+00
 Coeff:      0.395D+00 0.930D+00
 Gap=     0.284 Goal=     0.100 Shift=    0.000
 Gap=     0.182 Goal=     0.100 Shift=    0.000
 RMSDP=8.69D-05 MaxDP=7.08D-03 DE=-3.76D-05 OVMax= 6.26D-03

 Cycle   9  Pass 1  IDiag  1:
 RMSU=  2.81D-05    CP:  8.52D-01  9.02D-01  1.87D+00  7.68D-01  1.24D+00
                    CP:  1.18D+00  1.92D+00  1.40D+00
 E= -696.277041928951     Delta-E=       -0.000014624431 Rises=F Damp=F
 DIIS: error= 1.08D-04 at cycle   9 NSaved=   9.
 NSaved= 9 IEnMin= 9 EnMin= -696.277041928951     IErMin= 9 ErrMin= 1.08D-04
 ErrMax= 1.08D-04  0.00D+00 EMaxC= 1.00D+00 BMatC= 2.07D-06 BMatP= 1.01D-05
 IDIUse=1 WtCom= 1.00D+00 WtEn= 0.00D+00
 Coeff-Com: -0.577D-03-0.117D-01 0.260D-01 0.202D-01 0.299D-01-0.117D+00
 Coeff-Com: -0.183D+00 0.115D+00 0.112D+01
 Coeff:     -0.577D-03-0.117D-01 0.260D-01 0.202D-01 0.299D-01-0.117D+00
 Coeff:     -0.183D+00 0.115D+00 0.112D+01
 Gap=     0.284 Goal=     0.100 Shift=    0.000
 Gap=     0.182 Goal=     0.100 Shift=    0.000
 RMSDP=3.73D-05 MaxDP=2.45D-03 DE=-1.46D-05 OVMax= 4.42D-03

 Cycle  10  Pass 1  IDiag  1:
 RMSU=  1.41D-05    CP:  8.52D-01  9.02D-01  1.87D+00  7.62D-01  1.24D+00
                    CP:  1.18D+00  2.09D+00  1.83D+00  1.49D+00
 E= -696.277047170513     Delta-E=       -0.000005241561 Rises=F Damp=F
 DIIS: error= 4.82D-05 at cycle  10 NSaved=  10.
 NSaved=10 IEnMin=10 EnMin= -696.277047170513     IErMin=10 ErrMin= 4.82D-05
 ErrMax= 4.82D-05  0.00D+00 EMaxC= 1.00D+00 BMatC= 9.14D-07 BMatP= 2.07D-06
 IDIUse=1 WtCom= 1.00D+00 WtEn= 0.00D+00
 Coeff-Com: -0.398D-04-0.364D-02 0.719D-02 0.928D-02 0.373D-01 0.318D-01
 Coeff-Com: -0.191D+00-0.305D+00 0.472D+00 0.941D+00
 Coeff:     -0.398D-04-0.364D-02 0.719D-02 0.928D-02 0.373D-01 0.318D-01
 Coeff:     -0.191D+00-0.305D+00 0.472D+00 0.941D+00
 Gap=     0.284 Goal=     0.100 Shift=    0.000
 Gap=     0.182 Goal=     0.100 Shift=    0.000
 RMSDP=2.84D-05 MaxDP=2.09D-03 DE=-5.24D-06 OVMax= 2.97D-03

 Cycle  11  Pass 1  IDiag  1:
 RMSU=  1.03D-05    CP:  8.52D-01  9.01D-01  1.87D+00  7.60D-01  1.23D+00
                    CP:  1.18D+00  2.23D+00  2.05D+00  1.84D+00  1.33D+00
 E= -696.277049152319     Delta-E=       -0.000001981806 Rises=F Damp=F
 DIIS: error= 2.77D-05 at cycle  11 NSaved=  11.
 NSaved=11 IEnMin=11 EnMin= -696.277049152319     IErMin=11 ErrMin= 2.77D-05
 ErrMax= 2.77D-05  0.00D+00 EMaxC= 1.00D+00 BMatC= 1.39D-07 BMatP= 9.14D-07
 IDIUse=1 WtCom= 1.00D+00 WtEn= 0.00D+00
 Coeff-Com:  0.274D-03 0.405D-02-0.941D-02-0.743D-02-0.778D-02 0.468D-01
 Coeff-Com:  0.605D-01-0.768D-01-0.335D+00-0.430D-01 0.137D+01
 Coeff:      0.274D-03 0.405D-02-0.941D-02-0.743D-02-0.778D-02 0.468D-01
 Coeff:      0.605D-01-0.768D-01-0.335D+00-0.430D-01 0.137D+01
 Gap=     0.284 Goal=     0.100 Shift=    0.000
 Gap=     0.182 Goal=     0.100 Shift=    0.000
 RMSDP=1.80D-05 MaxDP=1.36D-03 DE=-1.98D-06 OVMax= 2.14D-03

 Cycle  12  Pass 1  IDiag  1:
 RMSU=  4.89D-06    CP:  8.52D-01  9.01D-01  1.87D+00  7.59D-01  1.24D+00
                    CP:  1.18D+00  2.29D+00  2.19D+00  2.05D+00  1.74D+00
                    CP:  1.42D+00
 E= -696.277049743708     Delta-E=       -0.000000591389 Rises=F Damp=F
 DIIS: error= 8.42D-06 at cycle  12 NSaved=  12.
 NSaved=12 IEnMin=12 EnMin= -696.277049743708     IErMin=12 ErrMin= 8.42D-06
 ErrMax= 8.42D-06  0.00D+00 EMaxC= 1.00D+00 BMatC= 2.37D-08 BMatP= 1.39D-07
 IDIUse=1 WtCom= 1.00D+00 WtEn= 0.00D+00
 Coeff-Com:  0.455D-04 0.122D-02-0.263D-02-0.259D-02-0.741D-02 0.525D-02
 Coeff-Com:  0.351D-01 0.252D-01-0.116D+00-0.158D+00 0.258D+00 0.963D+00
 Coeff:      0.455D-04 0.122D-02-0.263D-02-0.259D-02-0.741D-02 0.525D-02
 Coeff:      0.351D-01 0.252D-01-0.116D+00-0.158D+00 0.258D+00 0.963D+00
 Gap=     0.284 Goal=     0.100 Shift=    0.000
 Gap=     0.182 Goal=     0.100 Shift=    0.000
 RMSDP=7.39D-06 MaxDP=5.61D-04 DE=-5.91D-07 OVMax= 6.00D-04

 Cycle  13  Pass 1  IDiag  1:
 RMSU=  1.77D-06    CP:  8.51D-01  9.01D-01  1.87D+00  7.59D-01  1.24D+00
                    CP:  1.19D+00  2.31D+00  2.22D+00  2.09D+00  1.80D+00
                    CP:  1.56D+00  1.27D+00
 E= -696.277049801120     Delta-E=       -0.000000057412 Rises=F Damp=F
 DIIS: error= 3.75D-06 at cycle  13 NSaved=  13.
 NSaved=13 IEnMin=13 EnMin= -696.277049801120     IErMin=13 ErrMin= 3.75D-06
 ErrMax= 3.75D-06  0.00D+00 EMaxC= 1.00D+00 BMatC= 6.07D-09 BMatP= 2.37D-08
 IDIUse=1 WtCom= 1.00D+00 WtEn= 0.00D+00
 Coeff-Com: -0.464D-04-0.493D-03 0.121D-02 0.844D-03-0.966D-03-0.636D-02
 Coeff-Com: -0.305D-02 0.243D-01 0.331D-01-0.537D-01-0.197D+00 0.318D+00
 Coeff-Com:  0.884D+00
 Coeff:     -0.464D-04-0.493D-03 0.121D-02 0.844D-03-0.966D-03-0.636D-02
 Coeff:     -0.305D-02 0.243D-01 0.331D-01-0.537D-01-0.197D+00 0.318D+00
 Coeff:      0.884D+00
 Gap=     0.284 Goal=     0.100 Shift=    0.000
 Gap=     0.182 Goal=     0.100 Shift=    0.000
 RMSDP=1.87D-06 MaxDP=1.54D-04 DE=-5.74D-08 OVMax= 2.38D-04

 Cycle  14  Pass 1  IDiag  1:
 RMSU=  7.63D-07    CP:  8.51D-01  9.01D-01  1.87D+00  7.59D-01  1.24D+00
                    CP:  1.19D+00  2.32D+00  2.23D+00  2.10D+00  1.84D+00
                    CP:  1.57D+00  1.46D+00  1.25D+00
 E= -696.277049811617     Delta-E=       -0.000000010498 Rises=F Damp=F
 DIIS: error= 1.27D-06 at cycle  14 NSaved=  14.
 NSaved=14 IEnMin=14 EnMin= -696.277049811617     IErMin=14 ErrMin= 1.27D-06
 ErrMax= 1.27D-06  0.00D+00 EMaxC= 1.00D+00 BMatC= 1.59D-09 BMatP= 6.07D-09
 IDIUse=1 WtCom= 1.00D+00 WtEn= 0.00D+00
 Coeff-Com: -0.191D-04-0.365D-03 0.820D-03 0.760D-03 0.907D-03-0.242D-02
 Coeff-Com: -0.914D-02 0.157D-02 0.351D-01 0.189D-01-0.107D+00-0.164D+00
 Coeff-Com:  0.270D+00 0.955D+00
 Coeff:     -0.191D-04-0.365D-03 0.820D-03 0.760D-03 0.907D-03-0.242D-02
 Coeff:     -0.914D-02 0.157D-02 0.351D-01 0.189D-01-0.107D+00-0.164D+00
 Coeff:      0.270D+00 0.955D+00
 Gap=     0.284 Goal=     0.100 Shift=    0.000
 Gap=     0.182 Goal=     0.100 Shift=    0.000
 RMSDP=1.56D-06 MaxDP=1.40D-04 DE=-1.05D-08 OVMax= 1.11D-04

 Cycle  15  Pass 1  IDiag  1:
 RMSU=  4.26D-07    CP:  8.51D-01  9.01D-01  1.87D+00  7.59D-01  1.24D+00
                    CP:  1.19D+00  2.32D+00  2.24D+00  2.11D+00  1.84D+00
                    CP:  1.58D+00  1.53D+00  1.52D+00  1.35D+00
 E= -696.277049813680     Delta-E=       -0.000000002063 Rises=F Damp=F
 DIIS: error= 6.18D-07 at cycle  15 NSaved=  15.
 NSaved=15 IEnMin=15 EnMin= -696.277049813680     IErMin=15 ErrMin= 6.18D-07
 ErrMax= 6.18D-07  0.00D+00 EMaxC= 1.00D+00 BMatC= 1.99D-10 BMatP= 1.59D-09
 IDIUse=1 WtCom= 1.00D+00 WtEn= 0.00D+00
 Coeff-Com:  0.361D-05-0.160D-04 0.161D-04 0.813D-04 0.362D-03 0.626D-03
 Coeff-Com: -0.215D-02-0.332D-02 0.345D-02 0.123D-01 0.545D-02-0.929D-01
 Coeff-Com: -0.506D-01 0.227D+00 0.899D+00
 Coeff:      0.361D-05-0.160D-04 0.161D-04 0.813D-04 0.362D-03 0.626D-03
 Coeff:     -0.215D-02-0.332D-02 0.345D-02 0.123D-01 0.545D-02-0.929D-01
 Coeff:     -0.506D-01 0.227D+00 0.899D+00
 Gap=     0.284 Goal=     0.100 Shift=    0.000
 Gap=     0.182 Goal=     0.100 Shift=    0.000
 RMSDP=4.34D-07 MaxDP=4.00D-05 DE=-2.06D-09 OVMax= 2.35D-05

 Cycle  16  Pass 1  IDiag  1:
 RMSU=  1.57D-07    CP:  8.51D-01  9.01D-01  1.87D+00  7.59D-01  1.24D+00
                    CP:  1.19D+00  2.32D+00  2.24D+00  2.11D+00  1.84D+00
                    CP:  1.58D+00  1.53D+00  1.60D+00  1.52D+00  1.29D+00
 E= -696.277049813911     Delta-E=       -0.000000000231 Rises=F Damp=F
 DIIS: error= 3.35D-07 at cycle  16 NSaved=  16.
 NSaved=16 IEnMin=16 EnMin= -696.277049813911     IErMin=16 ErrMin= 3.35D-07
 ErrMax= 3.35D-07  0.00D+00 EMaxC= 1.00D+00 BMatC= 8.34D-11 BMatP= 1.99D-10
 IDIUse=1 WtCom= 1.00D+00 WtEn= 0.00D+00
 Coeff-Com:  0.639D-05 0.888D-04-0.207D-03-0.160D-03-0.107D-03 0.882D-03
 Coeff-Com:  0.143D-02-0.162D-02-0.768D-02 0.507D-03 0.298D-01 0.230D-02
 Coeff-Com: -0.887D-01-0.168D+00 0.419D+00 0.813D+00
 Coeff:      0.639D-05 0.888D-04-0.207D-03-0.160D-03-0.107D-03 0.882D-03
 Coeff:      0.143D-02-0.162D-02-0.768D-02 0.507D-03 0.298D-01 0.230D-02
 Coeff:     -0.887D-01-0.168D+00 0.419D+00 0.813D+00
 Gap=     0.284 Goal=     0.100 Shift=    0.000
 Gap=     0.182 Goal=     0.100 Shift=    0.000
 RMSDP=2.56D-07 MaxDP=2.15D-05 DE=-2.31D-10 OVMax= 7.84D-06

 Cycle  17  Pass 1  IDiag  1:
 RMSU=  7.47D-08    CP:  8.51D-01  9.01D-01  1.87D+00  7.59D-01  1.24D+00
                    CP:  1.19D+00  2.32D+00  2.24D+00  2.11D+00  1.84D+00
                    CP:  1.58D+00  1.52D+00  1.63D+00  1.56D+00  1.50D+00
                    CP:  1.15D+00
 E= -696.277049813979     Delta-E=       -0.000000000068 Rises=F Damp=F
 DIIS: error= 1.25D-07 at cycle  17 NSaved=  17.
 NSaved=17 IEnMin=17 EnMin= -696.277049813979     IErMin=17 ErrMin= 1.25D-07
 ErrMax= 1.25D-07  0.00D+00 EMaxC= 1.00D+00 BMatC= 6.40D-12 BMatP= 8.34D-11
 IDIUse=1 WtCom= 1.00D+00 WtEn= 0.00D+00
 Coeff-Com: -0.149D-05-0.542D-05 0.167D-04 0.486D-05-0.351D-04-0.158D-03
 Coeff-Com:  0.185D-03 0.759D-03-0.143D-03-0.187D-02-0.374D-02 0.155D-01
 Coeff-Com:  0.181D-01-0.339D-01-0.169D+00-0.127D+00 0.130D+01
 Coeff:     -0.149D-05-0.542D-05 0.167D-04 0.486D-05-0.351D-04-0.158D-03
 Coeff:      0.185D-03 0.759D-03-0.143D-03-0.187D-02-0.374D-02 0.155D-01
 Coeff:      0.181D-01-0.339D-01-0.169D+00-0.127D+00 0.130D+01
 Gap=     0.284 Goal=     0.100 Shift=    0.000
 Gap=     0.182 Goal=     0.100 Shift=    0.000
 RMSDP=8.33D-08 MaxDP=6.56D-06 DE=-6.82D-11 OVMax= 4.62D-06

 Cycle  18  Pass 1  IDiag  1:
 RMSU=  3.93D-08    CP:  8.51D-01  9.01D-01  1.87D+00  7.59D-01  1.24D+00
                    CP:  1.19D+00  2.32D+00  2.24D+00  2.11D+00  1.84D+00
                    CP:  1.58D+00  1.52D+00  1.63D+00  1.55D+00  1.53D+00
                    CP:  1.34D+00  1.52D+00
 E= -696.277049813989     Delta-E=       -0.000000000009 Rises=F Damp=F
 DIIS: error= 4.23D-08 at cycle  18 NSaved=  18.
 NSaved=18 IEnMin=18 EnMin= -696.277049813989     IErMin=18 ErrMin= 4.23D-08
 ErrMax= 4.23D-08  0.00D+00 EMaxC= 1.00D+00 BMatC= 2.10D-12 BMatP= 6.40D-12
 IDIUse=1 WtCom= 1.00D+00 WtEn= 0.00D+00
 Coeff-Com: -0.145D-05-0.123D-04 0.310D-04 0.213D-04-0.861D-05-0.171D-03
 Coeff-Com: -0.925D-04 0.553D-03 0.880D-03-0.825D-03-0.529D-02 0.647D-02
 Coeff-Com:  0.207D-01 0.822D-02-0.117D+00-0.179D+00 0.525D+00 0.740D+00
 Coeff:     -0.145D-05-0.123D-04 0.310D-04 0.213D-04-0.861D-05-0.171D-03
 Coeff:     -0.925D-04 0.553D-03 0.880D-03-0.825D-03-0.529D-02 0.647D-02
 Coeff:      0.207D-01 0.822D-02-0.117D+00-0.179D+00 0.525D+00 0.740D+00
 Gap=     0.284 Goal=     0.100 Shift=    0.000
 Gap=     0.182 Goal=     0.100 Shift=    0.000
 RMSDP=2.51D-08 MaxDP=1.61D-06 DE=-9.09D-12 OVMax= 1.34D-06

 Cycle  19  Pass 1  IDiag  1:
 RMSU=  1.13D-08    CP:  8.51D-01  9.01D-01  1.87D+00  7.59D-01  1.24D+00
                    CP:  1.19D+00  2.32D+00  2.24D+00  2.11D+00  1.84D+00
                    CP:  1.58D+00  1.52D+00  1.63D+00  1.53D+00  1.52D+00
                    CP:  1.34D+00  1.71D+00  1.22D+00
 E= -696.277049814016     Delta-E=       -0.000000000028 Rises=F Damp=F
 DIIS: error= 2.41D-08 at cycle  19 NSaved=  19.
 NSaved=19 IEnMin=19 EnMin= -696.277049814016     IErMin=19 ErrMin= 2.41D-08
 ErrMax= 2.41D-08  0.00D+00 EMaxC= 1.00D+00 BMatC= 3.17D-13 BMatP= 2.10D-12
 IDIUse=1 WtCom= 1.00D+00 WtEn= 0.00D+00
 Coeff-Com:  0.862D-07-0.236D-06 0.313D-06 0.219D-05 0.291D-05 0.718D-05
 Coeff-Com: -0.518D-04-0.534D-04 0.167D-03 0.260D-03-0.993D-04-0.260D-02
 Coeff-Com: -0.158D-03 0.784D-02 0.220D-01-0.198D-01-0.205D+00 0.144D+00
 Coeff-Com:  0.105D+01
 Coeff:      0.862D-07-0.236D-06 0.313D-06 0.219D-05 0.291D-05 0.718D-05
 Coeff:     -0.518D-04-0.534D-04 0.167D-03 0.260D-03-0.993D-04-0.260D-02
 Coeff:     -0.158D-03 0.784D-02 0.220D-01-0.198D-01-0.205D+00 0.144D+00
 Coeff:      0.105D+01
 Gap=     0.284 Goal=     0.100 Shift=    0.000
 Gap=     0.182 Goal=     0.100 Shift=    0.000
 RMSDP=1.73D-08 MaxDP=1.87D-06 DE=-2.80D-11 OVMax= 7.79D-07

 Cycle  20  Pass 1  IDiag  1:
 RMSU=  5.67D-09    CP:  8.51D-01  9.01D-01  1.87D+00  7.59D-01  1.24D+00
                    CP:  1.19D+00  2.32D+00  2.24D+00  2.11D+00  1.84D+00
                    CP:  1.58D+00  1.52D+00  1.63D+00  1.52D+00  1.52D+00
                    CP:  1.34D+00  1.79D+00  1.41D+00  1.39D+00
 E= -696.277049814071     Delta-E=       -0.000000000054 Rises=F Damp=F
 DIIS: error= 7.47D-09 at cycle  20 NSaved=  20.
 NSaved=20 IEnMin=20 EnMin= -696.277049814071     IErMin=20 ErrMin= 7.47D-09
 ErrMax= 7.47D-09  0.00D+00 EMaxC= 1.00D+00 BMatC= 3.28D-14 BMatP= 3.17D-13
 IDIUse=1 WtCom= 1.00D+00 WtEn= 0.00D+00
 Coeff-Com:  0.174D-06 0.163D-05-0.402D-05-0.274D-05 0.397D-06 0.203D-04
 Coeff-Com:  0.107D-04-0.578D-04-0.122D-03 0.596D-04 0.698D-03-0.764D-03
 Coeff-Com: -0.251D-02-0.152D-02 0.150D-01 0.179D-01-0.568D-01-0.976D-01
 Coeff-Com:  0.743D-02 0.112D+01
 Coeff:      0.174D-06 0.163D-05-0.402D-05-0.274D-05 0.397D-06 0.203D-04
 Coeff:      0.107D-04-0.578D-04-0.122D-03 0.596D-04 0.698D-03-0.764D-03
 Coeff:     -0.251D-02-0.152D-02 0.150D-01 0.179D-01-0.568D-01-0.976D-01
 Coeff:      0.743D-02 0.112D+01
 Gap=     0.284 Goal=     0.100 Shift=    0.000
 Gap=     0.182 Goal=     0.100 Shift=    0.000
 RMSDP=4.60D-09 MaxDP=2.83D-07 DE=-5.41D-11 OVMax= 2.52D-07

 Error on total polarization charges =  0.07118
 SCF Done:  E(UM062X) =  -696.277049814     A.U. after   20 cycles
            NFock= 20  Conv=0.46D-08     -V/T= 2.0087
 <Sx>= 0.0000 <Sy>= 0.0000 <Sz>= 0.5000 <S**2>= 0.7731 S= 0.5115
 <L.S>= 0.000000000000E+00
 KE= 6.902486546746D+02 PE=-3.927407044894D+03 EE= 1.384997923970D+03
 SMD-CDS (non-electrostatic) energy       (kcal/mol) =       7.40
 (included in total energy above)
 Annihilation of the first spin contaminant:
 S**2 before annihilation     0.7731,   after     0.7503
 Leave Link  502 at Wed Apr  9 18:05:47 2025, MaxMem=  8053063680 cpu:            8690.6 elap:             199.4
 (Enter /export/g16/l508.exe)
 QCSCF skips out because SCF is already converged.
 Leave Link  508 at Wed Apr  9 18:05:47 2025, MaxMem=  8053063680 cpu:               4.3 elap:               0.2
 (Enter /export/g16/l601.exe)
 Copying SCF densities to generalized density rwf, IOpCl= 1 IROHF=0.

 **********************************************************************

            Population analysis using the SCF density.

 **********************************************************************

 Orbital symmetries:
 Alpha Orbitals:
       Occupied  (A) (A) (A) (A) (A) (A) (A) (A) (A) (A) (A) (A)
                 (A) (A) (A) (A) (A) (A) (A) (A) (A) (A) (A) (A)
                 (A) (A) (A) (A) (A) (A) (A) (A) (A) (A) (A) (A)
                 (A) (A) (A) (A) (A) (A) (A) (A) (A) (A) (A) (A)
                 (A) (A) (A) (A) (A) (A) (A) (A) (A) (A) (A) (A)
                 (A)
       Virtual   (A) (A) (A) (A) (A) (A) (A) (A) (A) (A) (A) (A)
                 (A) (A) (A) (A) (A) (A) (A) (A) (A) (A) (A) (A)
                 (A) (A) (A) (A) (A) (A) (A) (A) (A) (A) (A) (A)
                 (A) (A) (A) (A) (A) (A) (A) (A) (A) (A) (A) (A)
                 (A) (A) (A) (A) (A) (A) (A) (A) (A) (A) (A) (A)
                 (A) (A) (A) (A) (A) (A) (A) (A) (A) (A) (A) (A)
                 (A) (A) (A) (A) (A) (A) (A) (A) (A) (A) (A) (A)
                 (A) (A) (A) (A) (A) (A) (A) (A) (A) (A) (A) (A)
                 (A) (A) (A) (A) (A) (A) (A) (A) (A) (A) (A) (A)
                 (A) (A) (A) (A) (A) (A) (A) (A) (A) (A) (A) (A)
                 (A) (A) (A) (A) (A) (A) (A) (A) (A) (A) (A) (A)
                 (A) (A) (A) (A) (A) (A) (A) (A) (A) (A) (A) (A)
                 (A) (A) (A) (A) (A) (A) (A) (A) (A) (A) (A) (A)
                 (A) (A) (A) (A) (A) (A) (A) (A) (A) (A) (A) (A)
                 (A) (A) (A) (A) (A) (A) (A) (A) (A) (A) (A) (A)
                 (A) (A) (A) (A) (A) (A) (A) (A) (A) (A) (A) (A)
                 (A) (A) (A) (A) (A) (A) (A) (A) (A) (A) (A) (A)
                 (A) (A) (A) (A) (A) (A) (A) (A) (A) (A) (A) (A)
                 (A) (A) (A) (A) (A) (A) (A) (A) (A) (A) (A) (A)
                 (A) (A) (A) (A) (A) (A) (A) (A) (A) (A) (A) (A)
                 (A) (A) (A) (A) (A) (A) (A) (A) (A) (A) (A) (A)
                 (A) (A) (A) (A) (A) (A) (A) (A) (A) (A) (A) (A)
                 (A) (A) (A) (A) (A) (A) (A) (A) (A) (A) (A) (A)
                 (A) (A) (A) (A) (A) (A) (A)
 Beta  Orbitals:
       Occupied  (A) (A) (A) (A) (A) (A) (A) (A) (A) (A) (A) (A)
                 (A) (A) (A) (A) (A) (A) (A) (A) (A) (A) (A) (A)
                 (A) (A) (A) (A) (A) (A) (A) (A) (A) (A) (A) (A)
                 (A) (A) (A) (A) (A) (A) (A) (A) (A) (A) (A) (A)
                 (A) (A) (A) (A) (A) (A) (A) (A) (A) (A) (A) (A)
       Virtual   (A) (A) (A) (A) (A) (A) (A) (A) (A) (A) (A) (A)
                 (A) (A) (A) (A) (A) (A) (A) (A) (A) (A) (A) (A)
                 (A) (A) (A) (A) (A) (A) (A) (A) (A) (A) (A) (A)
                 (A) (A) (A) (A) (A) (A) (A) (A) (A) (A) (A) (A)
                 (A) (A) (A) (A) (A) (A) (A) (A) (A) (A) (A) (A)
                 (A) (A) (A) (A) (A) (A) (A) (A) (A) (A) (A) (A)
                 (A) (A) (A) (A) (A) (A) (A) (A) (A) (A) (A) (A)
                 (A) (A) (A) (A) (A) (A) (A) (A) (A) (A) (A) (A)
                 (A) (A) (A) (A) (A) (A) (A) (A) (A) (A) (A) (A)
                 (A) (A) (A) (A) (A) (A) (A) (A) (A) (A) (A) (A)
                 (A) (A) (A) (A) (A) (A) (A) (A) (A) (A) (A) (A)
                 (A) (A) (A) (A) (A) (A) (A) (A) (A) (A) (A) (A)
                 (A) (A) (A) (A) (A) (A) (A) (A) (A) (A) (A) (A)
                 (A) (A) (A) (A) (A) (A) (A) (A) (A) (A) (A) (A)
                 (A) (A) (A) (A) (A) (A) (A) (A) (A) (A) (A) (A)
                 (A) (A) (A) (A) (A) (A) (A) (A) (A) (A) (A) (A)
                 (A) (A) (A) (A) (A) (A) (A) (A) (A) (A) (A) (A)
                 (A) (A) (A) (A) (A) (A) (A) (A) (A) (A) (A) (A)
                 (A) (A) (A) (A) (A) (A) (A) (A) (A) (A) (A) (A)
                 (A) (A) (A) (A) (A) (A) (A) (A) (A) (A) (A) (A)
                 (A) (A) (A) (A) (A) (A) (A) (A) (A) (A) (A) (A)
                 (A) (A) (A) (A) (A) (A) (A) (A) (A) (A) (A) (A)
                 (A) (A) (A) (A) (A) (A) (A) (A) (A) (A) (A) (A)
                 (A) (A) (A) (A) (A) (A) (A) (A)
 The electronic state is 2-A.
 Alpha  occ. eigenvalues --  -19.69886 -19.65093 -10.64019 -10.63394 -10.57366
 Alpha  occ. eigenvalues --  -10.57286 -10.57033 -10.56700 -10.56497 -10.55585
 Alpha  occ. eigenvalues --  -10.52855 -10.52854 -10.52785 -10.52770 -10.52694
 Alpha  occ. eigenvalues --  -10.52693  -1.22424  -1.16069  -0.97694  -0.93069
 Alpha  occ. eigenvalues --   -0.89912  -0.84095  -0.82449  -0.77276  -0.77216
 Alpha  occ. eigenvalues --   -0.77191  -0.77181  -0.71225  -0.70884  -0.65099
 Alpha  occ. eigenvalues --   -0.63133  -0.60982  -0.58330  -0.54736  -0.54246
 Alpha  occ. eigenvalues --   -0.53351  -0.52582  -0.50528  -0.50226  -0.50142
 Alpha  occ. eigenvalues --   -0.49890  -0.48621  -0.47721  -0.46758  -0.45447
 Alpha  occ. eigenvalues --   -0.44798  -0.44382  -0.43735  -0.43226  -0.42282
 Alpha  occ. eigenvalues --   -0.42103  -0.40867  -0.40175  -0.39705  -0.38908
 Alpha  occ. eigenvalues --   -0.37576  -0.37569  -0.37347  -0.34838  -0.29962
 Alpha  occ. eigenvalues --   -0.26559
 Alpha virt. eigenvalues --    0.01806   0.01910   0.02763   0.02826   0.03286
 Alpha virt. eigenvalues --    0.04125   0.04357   0.04533   0.04775   0.04953
 Alpha virt. eigenvalues --    0.06455   0.06796   0.06813   0.06920   0.07222
 Alpha virt. eigenvalues --    0.07860   0.08124   0.09325   0.09441   0.09756
 Alpha virt. eigenvalues --    0.10869   0.10996   0.11436   0.11529   0.12291
 Alpha virt. eigenvalues --    0.12572   0.13337   0.13939   0.14651   0.15381
[...]
    20  H   -0.000386   0.000001  -0.000001  -0.000001   0.000120   0.000025
    21  C    0.006666  -0.000040  -0.000087   0.000192   0.006664  -0.000087
    22  H   -0.000023   0.000001   0.000011   0.000000  -0.000023   0.000011
    23  H    0.001984   0.000014  -0.000004  -0.000001  -0.001108   0.000001
    24  H   -0.001108   0.000000   0.000001   0.000000   0.001984  -0.000004
    25  C   -0.001360  -0.000012   0.000005   0.000006  -0.001359   0.000005
    26  C    0.000246   0.000008  -0.000002  -0.000001   0.000246  -0.000002
    27  H   -0.000075   0.000000   0.000000   0.000000   0.000047   0.000000
    28  H   -0.000001   0.000000   0.000000   0.000000  -0.000001   0.000000
    29  H    0.000047   0.000000   0.000000   0.000000  -0.000075   0.000000
    30  C   -0.001895  -0.000001   0.000000   0.000000   0.002466   0.000000
    31  H    0.000002   0.000000   0.000000   0.000000  -0.000003   0.000000
    32  H   -0.000002   0.000000   0.000000   0.000000   0.000004   0.000000
    33  H   -0.000001   0.000000   0.000000   0.000000  -0.000001   0.000000
    34  C    0.002466   0.000002   0.000000   0.000000  -0.001895   0.000000
    35  H   -0.000003   0.000000   0.000000   0.000000   0.000002   0.000000
    36  H   -0.000001   0.000000   0.000000   0.000000  -0.000001   0.000000
    37  H    0.000004   0.000000   0.000000   0.000000  -0.000002   0.000000
              19         20         21         22         23         24
     1  C   -0.000222   0.000107   0.001348   0.000074  -0.000263  -0.000263
     2  C    0.000394  -0.000073  -0.005859   0.000064   0.000126   0.000126
     3  C    0.000235  -0.000384  -0.000345  -0.000084   0.000223   0.000223
     4  C   -0.001584   0.001443  -0.009991   0.000584  -0.000904  -0.000904
     5  C    0.001763  -0.001561   0.004137  -0.000098   0.001105   0.001105
     6  C    0.000299  -0.000070  -0.009250   0.000069  -0.000681  -0.000680
     7  H    0.000002   0.000000   0.000746  -0.000023   0.000152   0.000152
     8  H    0.000000   0.000000   0.000007   0.000000   0.000000   0.000000
     9  O   -0.000001  -0.000001  -0.000056   0.000000   0.000000   0.000000
    10  O    0.000038  -0.000029  -0.000167   0.000000  -0.000003  -0.000003
    11  H    0.000000   0.000000   0.000022   0.000000   0.000000   0.000000
    12  C   -0.002286   0.000795  -0.000119  -0.000383  -0.001460  -0.001460
    13  C   -0.000046  -0.000386   0.006666  -0.000023   0.001984  -0.001108
    14  H    0.000000   0.000001  -0.000040   0.000001   0.000014   0.000000
    15  H    0.000001  -0.000001  -0.000087   0.000011  -0.000004   0.000001
    16  H    0.000001  -0.000001   0.000192   0.000000  -0.000001   0.000000
    17  C    0.001420   0.000120   0.006664  -0.000023  -0.001108   0.001984
    18  H   -0.000024   0.000025  -0.000087   0.000011   0.000001  -0.000004
    19  H    0.000283  -0.000039  -0.000040   0.000001   0.000000   0.000014
    20  H   -0.000039  -0.000024   0.000192   0.000000   0.000000  -0.000001
    21  C   -0.000040   0.000192   0.004464  -0.000147   0.000806   0.000806
    22  H    0.000001   0.000000  -0.000147  -0.000257   0.000020   0.000020
    23  H    0.000000   0.000000   0.000806   0.000020   0.000272  -0.000025
    24  H    0.000014  -0.000001   0.000806   0.000020  -0.000025   0.000272
    25  C   -0.000012   0.000006   0.000669   0.000019  -0.000147  -0.000147
    26  C    0.000008  -0.000001   0.000472  -0.000006   0.000069   0.000069
    27  H    0.000000   0.000000   0.000060   0.000000   0.000002  -0.000001
    28  H    0.000000   0.000000  -0.000009   0.000000   0.000000   0.000000
    29  H    0.000000   0.000000   0.000060   0.000000  -0.000001   0.000002
    30  C    0.000002   0.000000   0.000461  -0.000001   0.000005  -0.000002
    31  H    0.000000   0.000000  -0.000001   0.000000   0.000000   0.000000
    32  H    0.000000   0.000000   0.000000   0.000000   0.000000   0.000000
    33  H    0.000000   0.000000   0.000004   0.000000   0.000000   0.000000
    34  C   -0.000001   0.000000   0.000461  -0.000001  -0.000002   0.000005
    35  H    0.000000   0.000000  -0.000001   0.000000   0.000000   0.000000
    36  H    0.000000   0.000000   0.000004   0.000000   0.000000   0.000000
    37  H    0.000000   0.000000   0.000000   0.000000   0.000000   0.000000
              25         26         27         28         29         30
     1  C   -0.067900   0.005904  -0.001381   0.000619  -0.001381  -0.002622
     2  C    0.139889  -0.023887   0.001819  -0.001016   0.001819   0.004923
     3  C    0.028431  -0.002024   0.000227  -0.000051   0.000227   0.005028
     4  C   -0.021215  -0.001070  -0.000306   0.000079  -0.000306   0.001601
     5  C    0.007476   0.003228   0.000045   0.000070   0.000045  -0.000677
     6  C    0.031680  -0.006374  -0.000784   0.000411  -0.000784  -0.011993
     7  H    0.001289  -0.000547   0.000175  -0.000024   0.000175  -0.000496
     8  H    0.002472   0.000168   0.000000   0.000000   0.000000  -0.000326
     9  O    0.000295  -0.000098   0.000000   0.000000   0.000000  -0.000250
    10  O    0.000521  -0.000011   0.000000   0.000000   0.000000  -0.000112
    11  H   -0.000030  -0.000003   0.000000   0.000000   0.000000   0.000000
    12  C   -0.012218   0.003335  -0.000137   0.000027  -0.000137  -0.003323
    13  C   -0.001360   0.000246  -0.000075  -0.000001   0.000047  -0.001895
    14  H   -0.000012   0.000008   0.000000   0.000000   0.000000  -0.000001
    15  H    0.000005  -0.000002   0.000000   0.000000   0.000000   0.000000
    16  H    0.000006  -0.000001   0.000000   0.000000   0.000000   0.000000
    17  C   -0.001359   0.000246   0.000047  -0.000001  -0.000075   0.002466
    18  H    0.000005  -0.000002   0.000000   0.000000   0.000000   0.000000
    19  H   -0.000012   0.000008   0.000000   0.000000   0.000000   0.000002
    20  H    0.000006  -0.000001   0.000000   0.000000   0.000000   0.000000
    21  C    0.000669   0.000472   0.000060  -0.000009   0.000060   0.000461
    22  H    0.000019  -0.000006   0.000000   0.000000   0.000000  -0.000001
    23  H   -0.000147   0.000069   0.000002   0.000000  -0.000001   0.000005
    24  H   -0.000147   0.000069  -0.000001   0.000000   0.000002  -0.000002
    25  C   -0.034475  -0.001068   0.001179  -0.001431   0.001179  -0.020052
    26  C   -0.001068   0.004234  -0.000200   0.000801  -0.000200   0.006578
    27  H    0.001179  -0.000200   0.000229   0.000023  -0.000037   0.000293
    28  H   -0.001431   0.000801   0.000023  -0.000474   0.000023   0.000293
    29  H    0.001179  -0.000200  -0.000037   0.000023   0.000229  -0.000990
    30  C   -0.020052   0.006578   0.000293   0.000293  -0.000990   0.057985
    31  H    0.002417  -0.000309   0.000000  -0.000003  -0.000010  -0.003404
    32  H   -0.000305   0.000131   0.000000   0.000000  -0.000001   0.000346
    33  H   -0.000372  -0.000004  -0.000001   0.000001   0.000049   0.000700
    34  C   -0.020058   0.006580  -0.000990   0.000293   0.000293  -0.046574
    35  H    0.002417  -0.000309  -0.000010  -0.000003   0.000000   0.001689
    36  H   -0.000372  -0.000004   0.000049   0.000001  -0.000001  -0.000567
    37  H   -0.000305   0.000131  -0.000001   0.000000   0.000000  -0.000039
              31         32         33         34         35         36
     1  C    0.000674   0.002179  -0.002232  -0.002625   0.000674  -0.002232
     2  C   -0.001095  -0.002601   0.002717   0.004930  -0.001095   0.002717
     3  C   -0.000002  -0.000027   0.000195   0.005029  -0.000002   0.000195
     4  C    0.000032   0.000151  -0.000298   0.001600   0.000032  -0.000298
     5  C   -0.000035  -0.000088   0.000236  -0.000676  -0.000035   0.000236
     6  C    0.000257   0.000212  -0.000565  -0.011991   0.000257  -0.000565
     7  H    0.000000   0.000000   0.000001  -0.000496   0.000000   0.000001
     8  H   -0.000001   0.000024  -0.000002  -0.000326  -0.000001  -0.000002
     9  O    0.000000  -0.000003  -0.000002  -0.000250   0.000000  -0.000002
    10  O    0.000000   0.000000   0.000000  -0.000112   0.000000   0.000000
    11  H    0.000000   0.000000   0.000000   0.000000   0.000000   0.000000
    12  C    0.000008  -0.000001  -0.000013  -0.003323   0.000008  -0.000013
    13  C    0.000002  -0.000002  -0.000001   0.002466  -0.000003  -0.000001
    14  H    0.000000   0.000000   0.000000   0.000002   0.000000   0.000000
    15  H    0.000000   0.000000   0.000000   0.000000   0.000000   0.000000
    16  H    0.000000   0.000000   0.000000   0.000000   0.000000   0.000000
    17  C   -0.000003   0.000004  -0.000001  -0.001895   0.000002  -0.000001
    18  H    0.000000   0.000000   0.000000   0.000000   0.000000   0.000000
    19  H    0.000000   0.000000   0.000000  -0.000001   0.000000   0.000000
    20  H    0.000000   0.000000   0.000000   0.000000   0.000000   0.000000
    21  C   -0.000001   0.000000   0.000004   0.000461  -0.000001   0.000004
    22  H    0.000000   0.000000   0.000000  -0.000001   0.000000   0.000000
    23  H    0.000000   0.000000   0.000000  -0.000002   0.000000   0.000000
    24  H    0.000000   0.000000   0.000000   0.000005   0.000000   0.000000
    25  C    0.002417  -0.000305  -0.000372  -0.020058   0.002417  -0.000372
    26  C   -0.000309   0.000131  -0.000004   0.006580  -0.000309  -0.000004
    27  H    0.000000   0.000000  -0.000001  -0.000990  -0.000010   0.000049
    28  H   -0.000003   0.000000   0.000001   0.000293  -0.000003   0.000001
    29  H   -0.000010  -0.000001   0.000049   0.000293   0.000000  -0.000001
    30  C   -0.003404   0.000346   0.000700  -0.046574   0.001689  -0.000567
    31  H   -0.000861   0.000034   0.000005   0.001689   0.000051   0.000000
    32  H    0.000034  -0.000082  -0.000002  -0.000039   0.000002  -0.000001
    33  H    0.000005  -0.000002   0.000155  -0.000567   0.000000  -0.000001
    34  C    0.001689  -0.000039  -0.000567   0.057984  -0.003404   0.000700
    35  H    0.000051   0.000002   0.000000  -0.003404  -0.000861   0.000005
    36  H    0.000000  -0.000001  -0.000001   0.000700   0.000005   0.000155
    37  H    0.000002   0.000007  -0.000001   0.000346   0.000034  -0.000002
              37
     1  C    0.002179
     2  C   -0.002601
     3  C   -0.000027
     4  C    0.000151
     5  C   -0.000088
     6  C    0.000212
     7  H    0.000000
     8  H    0.000024
     9  O   -0.000003
    10  O    0.000000
    11  H    0.000000
    12  C   -0.000001
    13  C    0.000004
    14  H    0.000000
    15  H    0.000000
    16  H    0.000000
    17  C   -0.000002
    18  H    0.000000
    19  H    0.000000
    20  H    0.000000
    21  C    0.000000
    22  H    0.000000
    23  H    0.000000
    24  H    0.000000
    25  C   -0.000305
    26  C    0.000131
    27  H   -0.000001
    28  H    0.000000
    29  H    0.000000
    30  C   -0.000039
    31  H    0.000002
    32  H    0.000007
    33  H   -0.000001
    34  C    0.000346
    35  H    0.000034
    36  H   -0.000002
    37  H   -0.000082
 Mulliken charges and spin densities:
               1          2
     1  C    0.177626   0.143469
     2  C   -0.815721  -0.069068
     3  C    0.740459   0.034495
     4  C    0.170275   0.360146
     5  C   -0.415174  -0.155850
     6  C   -0.572199   0.307103
     7  H    0.243257  -0.015098
     8  H    0.264058  -0.006091
     9  O   -0.687603   0.294042
    10  O   -0.670547   0.083381
    11  H    0.584931  -0.004964
    12  C   -0.118196   0.012152
    13  C   -0.575177   0.002176
    14  H    0.243670   0.000205
    15  H    0.236720  -0.000554
    16  H    0.250296   0.000118
    17  C   -0.575178   0.002176
    18  H    0.236720  -0.000554
    19  H    0.243670   0.000205
    20  H    0.250296   0.000118
    21  C   -0.498591   0.002044
    22  H    0.240927  -0.000172
    23  H    0.244348   0.000181
    24  H    0.244348   0.000181
    25  C    0.028155   0.037118
    26  C   -0.505278  -0.003910
    27  H    0.242966   0.000224
    28  H    0.239526  -0.000372
    29  H    0.242966   0.000224
    30  C   -0.569515  -0.010952
    31  H    0.236868  -0.000552
    32  H    0.242399  -0.000061
    33  H    0.244472   0.000002
    34  C   -0.569515  -0.010952
    35  H    0.236868  -0.000552
    36  H    0.244472   0.000002
    37  H    0.242398  -0.000061
 Sum of Mulliken charges =   0.00000   1.00000
 Mulliken charges and spin densities with hydrogens summed into heavy atoms:
               1          2
     1  C    0.441684   0.137378
     2  C   -0.815721  -0.069068
     3  C    0.740459   0.034495
     4  C    0.170275   0.360146
     5  C   -0.415174  -0.155850
     6  C   -0.328942   0.292005
     9  O   -0.687603   0.294042
    10  O   -0.085615   0.078417
    12  C   -0.118196   0.012152
    13  C    0.155509   0.001946
    17  C    0.155509   0.001946
    21  C    0.231031   0.002234
    25  C    0.028155   0.037118
    26  C    0.220180  -0.003835
    30  C    0.154225  -0.011564
    34  C    0.154223  -0.011563
 Electronic spatial extent (au):  <R**2>=           4143.8975
 Charge=              0.0000 electrons
 Dipole moment (field-independent basis, Debye):
    X=              1.0910    Y=             -5.3355    Z=              0.0000  Tot=              5.4459
 Quadrupole moment (field-independent basis, Debye-Ang):
   XX=            -92.1834   YY=           -111.8154   ZZ=           -101.8947
   XY=             -0.9328   XZ=              0.0000   YZ=             -0.0001
 Traceless Quadrupole moment (field-independent basis, Debye-Ang):
   XX=              9.7811   YY=             -9.8509   ZZ=              0.0698
   XY=             -0.9328   XZ=              0.0000   YZ=             -0.0001
 Octapole moment (field-independent basis, Debye-Ang**2):
  XXX=             11.3641  YYY=            -47.2456  ZZZ=              0.0001  XYY=            -15.5773
  XXY=              2.4749  XXZ=              0.0000  XZZ=             -3.8893  YZZ=              2.4235
  YYZ=             -0.0004  XYZ=             -0.0001
 Hexadecapole moment (field-independent basis, Debye-Ang**3):
 XXXX=          -3520.0909 YYYY=          -1864.8161 ZZZZ=           -479.3886 XXXY=            -16.2356
 XXXZ=             -0.0019 YYYX=            -60.3565 YYYZ=             -0.0052 ZZZX=             -0.0022
 ZZZY=             -0.0036 XXYY=           -801.0916 XXZZ=           -704.2953 YYZZ=           -350.9567
 XXYZ=             -0.0007 YYXZ=             -0.0008 ZZXY=            -11.6002
 N-N= 1.157706044258D+03 E-N=-3.931018669183D+03  KE= 6.902029074890D+02
 Leave Link  601 at Wed Apr  9 19:29:49 2025, MaxMem=  8053063680 cpu:              12.4 elap:               0.3
 (Enter /export/g16/l9999.exe)
 Electronic transition elements 
                 1             2             3             4             5 
      1  -0.696214D+03 -0.696204D+03 -0.696142D+03 -0.696119D+03 -0.696113D+03
      2  -0.423932D+00  0.000000D+00  0.431335D+00  0.000000D+00  0.510316D+00
      3   0.272531D+00  0.000000D+00  0.664975D+00  0.000000D+00 -0.880258D-01
      4  -0.290479D-05  0.117087D-01 -0.393781D-05  0.319643D-01  0.108184D-05
      5   0.322348D-01  0.000000D+00 -0.560635D-01  0.000000D+00 -0.838609D-01
      6  -0.207230D-01  0.000000D+00 -0.845867D-01  0.000000D+00  0.121999D-01
      7   0.000000D+00  0.126041D-02  0.000000D+00  0.119943D-02  0.000000D+00
      8  -0.116441D-05  0.112379D+00  0.000000D+00 -0.516537D-02  0.000000D+00
      9   0.256994D-05  0.480958D+00  0.000000D+00 -0.285528D+00  0.000000D+00
     10   0.565968D+00 -0.193504D-05  0.700907D-01  0.200653D-05 -0.145422D+00
     11   0.158657D+00  0.000000D+00  0.150105D+00  0.000000D+00  0.104807D+00
     12  -0.163727D+00  0.000000D+00 -0.434302D+00  0.000000D+00 -0.478565D-01
     13   0.127284D-01  0.000000D+00  0.257304D-01  0.000000D+00  0.387780D-01
     14   0.950559D-01  0.000000D+00  0.126939D-01  0.000000D+00 -0.929970D-01
     15   0.000000D+00 -0.145723D-01  0.000000D+00  0.615452D-01  0.000000D+00
     16   0.123256D-05  0.105326D-01  0.285650D-05  0.374853D-01  0.000000D+00
                 6             7             8             9            10 
      1  -0.696105D+03 -0.696103D+03 -0.696089D+03 -0.696083D+03 -0.696082D+03
      2  -0.337818D-05  0.691086D+00  0.427467D+00  0.177645D-05 -0.291316D+00
      3  -0.120773D-05  0.507191D+00 -0.105443D+01 -0.135376D-05  0.163140D+00
      4   0.806917D-01 -0.200395D-05  0.716388D-05  0.232502D-01 -0.115527D-05
      5   0.000000D+00 -0.123302D+00 -0.816597D-01  0.000000D+00  0.584840D-01
      6   0.000000D+00 -0.890329D-01  0.198747D+00  0.000000D+00 -0.330249D-01
      7  -0.195124D-01  0.000000D+00 -0.133629D-05 -0.520940D-02  0.000000D+00
      8  -0.845424D-01  0.000000D+00  0.000000D+00 -0.107070D+00  0.000000D+00
      9   0.752721D-01  0.000000D+00  0.000000D+00  0.362052D+00  0.000000D+00
     10   0.000000D+00 -0.139802D+00 -0.158167D-01 -0.159453D-05 -0.121596D+00
     11  -0.109777D-05  0.148963D+00 -0.342423D+00 -0.107180D-05  0.223888D+00
     12   0.000000D+00 -0.339982D+00  0.106268D+01  0.267754D-05 -0.585136D+00
     13   0.000000D+00  0.655557D-01 -0.477491D-01  0.000000D+00 -0.339774D-01
     14   0.114971D-05 -0.205064D+00 -0.475384D-01 -0.219814D-05  0.119025D+00
     15   0.466438D-01  0.134104D-05  0.000000D+00  0.319805D-02  0.000000D+00
     16  -0.448873D-01  0.196335D-05 -0.771700D-05  0.393429D-02  0.414000D-05
 1\1\GINC-C07\SP\UM062X TD-FC\6-31+G(d)\C14H21O2(2)\TALIPOVM\09-Apr-202
 5\0\\#p M062X/6-31+G(d) td(nstates=10) int(grid=ultrafine) scf(xqc,fer
 mi,maxcyc=200) scrf(check) guess(read) geom(allcheck)\\\0,2\C,0,-1.286
 1948216,1.4636558139,-0.0000139247\C,0,-1.4014330254,0.0972769632,-0.0
 000048643\C,0,0.0030382399,2.0859497009,-0.000016393\C,0,1.1863027863,
 1.2240266819,-0.0000085771\C,0,1.0883258972,-0.1771537834,-0.000000453
 4\C,0,-0.2040689284,-0.6927981638,0.0000006275\H,0,-0.3170494775,-1.76
 86319027,0.0000068307\H,0,-2.1517979143,2.1208230605,-0.0000194997\O,0
 ,0.1924792187,3.3346414396,-0.0000242535\O,0,2.3573985664,1.8608946128
 ,-0.0000103251\H,0,2.1583789474,2.8237487494,-0.0000166041\C,0,2.33501
 1643,-1.0674429862,0.0000066663\C,0,3.1736514334,-0.7919855818,-1.2604
 38045\H,0,2.5899645783,-1.000101227,-2.1644236316\H,0,4.0518054624,-1.
 4480278095,-1.2638436987\H,0,3.523444462,0.2422758143,-1.3052521716\C,
 0,3.1736477212,-0.7919710239,1.2604506734\H,0,4.0518018309,-1.44801309
 67,1.2638664506\H,0,2.5899582266,-1.0000763212,2.1644369384\H,0,3.5234
 404867,0.2422909351,1.3052539123\C,0,1.9652008873,-2.5545688428,0.0000
 146215\H,0,2.8866487903,-3.1462780563,0.0000198767\H,0,1.3885749224,-2
 .832627836,-0.8895558592\H,0,1.3885713553,-2.832617533,0.8895859981\C,
 0,-2.7887645786,-0.5551108209,-0.0000027928\C,0,-2.7226789981,-2.08561
 76104,-0.0000045435\H,0,-2.2129277442,-2.4728831684,-0.8895007815\H,0,
 -3.74260678,-2.4845293613,-0.0000068386\H,0,-2.2129313115,-2.472885702
 8,0.8894926112\C,0,-3.5564457851,-0.1041909801,1.2539089137\H,0,-4.550
 1446872,-0.5666512131,1.2658257924\H,0,-3.6877566629,0.9824970603,1.27
 59329067\H,0,-3.0267959391,-0.4051261039,2.1650242263\C,0,-3.556451114
 1,-0.1041889259,-1.2539101974\H,0,-4.5501501964,-0.5666489048,-1.26582
 30737\H,0,-3.0268054911,-0.4051230084,-2.1650283211\H,0,-3.687762,0.98
 24991327,-1.2759322038\\Version=ES64L-G16RevA.03\State=2-A\HF=-696.277
 6583\S2=0.772622\S2-1=0.\S2A=0.750326\RMSD=5.906e-09\PG=C01 [X(C14H21O
 2)]\\@


 IT IS A PROFOUNDLY ERRONEOUS TRUISM ... THAT WE SHOULD CULTIVATE
 THE HABIT OF THINKING OF WHAT WE ARE DOING.
 THE PRECISE OPPOSITE IS THE CASE.
 CIVILIZATION ADVANCES BY EXTENDING THE NUMBER OF IMPORTANT OPERATIONS
 WHICH WE CAN PERFORM WITHOUT THINKING ABOUT THEM.

                                    -- ALFRED NORTH WHITEHEAD
 Job cpu time:       0 days 15 hours 52 minutes  9.3 seconds.
 Elapsed time:       0 days  0 hours 21 minutes 44.1 seconds.
 File lengths (MBytes):  RWF=   1131 Int=      0 D2E=      0 Chk=     77 Scr=      1
 Normal termination of Gaussian 16 at Wed Apr  9 19:29:50 2025.
