 Entering Gaussian System, Link 0=/export/g16/g16
 Input=Q-AR.com
 Output=Q-AR.log
 AtFile(1): Q-AR.xyz
            C          1.80356        0.71161        0.00000
            C          0.61979        1.40714        0.00000
            C          1.80356       -0.71161        0.00000
            C          0.61979       -1.40714        0.00000
            C         -0.65877       -0.74710        0.00000
            C         -0.65877        0.74710        0.00000
            H          2.74744       -1.24379        0.00000
            O         -1.74340        1.39647        0.00000
            H          2.74744        1.24379        0.00000
            H          0.61226        2.49146        0.00000
            H          0.61226       -2.49146        0.00000
            O         -1.74340       -1.39647        0.00000
 Initial command:
 /export/g16/l1.exe "/tmp/talipovm/21606/Gau-3566904.inp" -scrdir="/tmp/talipovm/21606/"
 Entering Link 1 = /export/g16/l1.exe PID=   3566906.
  
 Copyright (c) 1988,1990,1992,1993,1995,1998,2003,2009,2016,
            Gaussian, Inc.  All Rights Reserved.
  
 This is part of the Gaussian(R) 16 program.  It is based on
 the Gaussian(R) 09 system (copyright 2009, Gaussian, Inc.),
 the Gaussian(R) 03 system (copyright 2003, Gaussian, Inc.),
 the Gaussian(R) 98 system (copyright 1998, Gaussian, Inc.),
 the Gaussian(R) 94 system (copyright 1995, Gaussian, Inc.),
 the Gaussian 92(TM) system (copyright 1992, Gaussian, Inc.),
 the Gaussian 90(TM) system (copyright 1990, Gaussian, Inc.),
 the Gaussian 88(TM) system (copyright 1988, Gaussian, Inc.),
 the Gaussian 86(TM) system (copyright 1986, Carnegie Mellon
 University), and the Gaussian 82(TM) system (copyright 1983,
 Carnegie Mellon University). Gaussian is a federally registered
 trademark of Gaussian, Inc.
  
 This software contains proprietary and confidential information,
 including trade secrets, belonging to Gaussian, Inc.
  
 This software is provided under written license and may be
 used, copied, transmitted, or stored only in accord with that
 written license.
  
 The following legend is applicable only to US Government
 contracts under FAR:
  
                    RESTRICTED RIGHTS LEGEND
  
 Use, reproduction and disclosure by the US Government is
 subject to restrictions as set forth in subparagraphs (a)
 and (c) of the Commercial Computer Software - Restricted
 Rights clause in FAR 52.227-19.
  
 Gaussian, Inc.
 340 Quinnipiac St., Bldg. 40, Wallingford CT 06492
  
  
 ---------------------------------------------------------------
 Warning -- This program may not be used in any manner that
 competes with the business of Gaussian, Inc. or will provide
 assistance to any competitor of Gaussian, Inc.  The licensee
 of this program is prohibited from giving any competitor of
 Gaussian, Inc. access to this program.  By using this program,
 the user acknowledges that Gaussian, Inc. is engaged in the
 business of creating and licensing software in the field of
 computational chemistry and represents and warrants to the
 licensee that it is not a competitor of Gaussian, Inc. and that
 it will not use this program in any manner prohibited above.
 ---------------------------------------------------------------
  

 Cite this work as:
 Gaussian 16, Revision A.03,
 M. J. Frisch, G. W. Trucks, H. B. Schlegel, G. E. Scuseria, 
 M. A. Robb, J. R. Cheeseman, G. Scalmani, V. Barone, 
 G. A. Petersson, H. Nakatsuji, X. Li, M. Caricato, A. V. Marenich, 
 J. Bloino, B. G. Janesko, R. Gomperts, B. Mennucci, H. P. Hratchian, 
 J. V. Ortiz, A. F. Izmaylov, J. L. Sonnenberg, D. Williams-Young, 
 F. Ding, F. Lipparini, F. Egidi, J. Goings, B. Peng, A. Petrone, 
 T. Henderson, D. Ranasinghe, V. G. Zakrzewski, J. Gao, N. Rega, 
 G. Zheng, W. Liang, M. Hada, M. Ehara, K. Toyota, R. Fukuda, 
 J. Hasegawa, M. Ishida, T. Nakajima, Y. Honda, O. Kitao, H. Nakai, 
 T. Vreven, K. Throssell, J. A. Montgomery, Jr., J. E. Peralta, 
 F. Ogliaro, M. J. Bearpark, J. J. Heyd, E. N. Brothers, K. N. Kudin, 
 V. N. Staroverov, T. A. Keith, R. Kobayashi, J. Normand, 
 K. Raghavachari, A. P. Rendell, J. C. Burant, S. S. Iyengar, 
 J. Tomasi, M. Cossi, J. M. Millam, M. Klene, C. Adamo, R. Cammi, 
 J. W. Ochterski, R. L. Martin, K. Morokuma, O. Farkas, 
 J. B. Foresman, and D. J. Fox, Gaussian, Inc., Wallingford CT, 2016.
 
 ******************************************
 Gaussian 16:  ES64L-G16RevA.03 25-Dec-2016
                 9-Apr-2025 
 ******************************************
 %nproc=44
 Will use up to   44 processors via shared memory.
 %mem=60Gb
 %chk=Q-AR.chk
 ----------------------------------------------------------------------
 #p M062X/6-31+G(d) opt(tight) int(grid=ultrafine) scf(xqc,fermi,maxcyc
 =200) scrf(smd,solvent=water)
 ----------------------------------------------------------------------
 1/7=10,18=20,19=15,26=6,38=1/1,3;
 2/9=110,12=2,17=6,18=5,40=1/2;
 3/5=1,6=6,7=11,11=2,25=1,30=1,70=32201,71=1,72=1,74=-55,75=-5/1,2,3;
 4//1;
 5/5=2,7=200,8=3,13=1,22=13,38=5,53=1/2,8;
 6/7=2,8=2,9=2,10=2,28=1/1;
 7//1,2,3,16;
 1/7=10,18=20,19=15,26=6/3(2);
 2/9=110/2;
 99//99;
 2/9=110/2;
 3/5=1,6=6,7=11,11=2,25=1,30=1,70=32205,71=1,72=1,74=-55,75=-5/1,2,3;
 4/5=5,16=3,69=1/1;
 5/5=2,7=200,8=3,13=1,22=13,38=5,53=1/2,8;
 7//1,2,3,16;
 1/7=10,18=20,19=15,26=6/3(-5);
 2/9=110/2;
 6/7=2,8=2,9=2,10=2,19=2,28=1/1;
 99/9=1/99;
 Leave Link    1 at Wed Apr  9 18:02:25 2025, MaxMem=  8053063680 cpu:               8.7 elap:               0.2
 (Enter /export/g16/l101.exe)


 Symbolic Z-matrix:
 Charge = -1 Multiplicity = 2
 C                     1.80356   0.71161   0. 
 C                     0.61979   1.40714   0. 
 C                     1.80356  -0.71161   0. 
 C                     0.61979  -1.40714   0. 
 C                    -0.65877  -0.7471    0. 
 C                    -0.65877   0.7471    0. 
 H                     2.74744  -1.24379   0. 
 O                    -1.7434    1.39647   0. 
 H                     2.74744   1.24379   0. 
 H                     0.61226   2.49146   0. 
 H                     0.61226  -2.49146   0. 
 O                    -1.7434   -1.39647   0. 
 
 ITRead=  0  0  0  0  0  0  0  0  0  0  0  0
 MicOpt= -1 -1 -1 -1 -1 -1 -1 -1 -1 -1 -1 -1
 NAtoms=     12 NQM=       12 NQMF=       0 NMMI=      0 NMMIF=      0
                NMic=       0 NMicF=      0.
                    Isotopes and Nuclear Properties:
 (Nuclear quadrupole moments (NQMom) in fm**2, nuclear magnetic moments (NMagM)
  in nuclear magnetons)

  Atom         1           2           3           4           5           6           7           8           9          10
 IAtWgt=          12          12          12          12          12          12           1          16           1           1
 AtmWgt=  12.0000000  12.0000000  12.0000000  12.0000000  12.0000000  12.0000000   1.0078250  15.9949146   1.0078250   1.0078250
 NucSpn=           0           0           0           0           0           0           1           0           1           1
 AtZEff=   0.0000000   0.0000000   0.0000000   0.0000000   0.0000000   0.0000000   0.0000000   0.0000000   0.0000000   0.0000000
 NQMom=    0.0000000   0.0000000   0.0000000   0.0000000   0.0000000   0.0000000   0.0000000   0.0000000   0.0000000   0.0000000
 NMagM=    0.0000000   0.0000000   0.0000000   0.0000000   0.0000000   0.0000000   2.7928460   0.0000000   2.7928460   2.7928460
 AtZNuc=   6.0000000   6.0000000   6.0000000   6.0000000   6.0000000   6.0000000   1.0000000   8.0000000   1.0000000   1.0000000

  Atom        11          12
 IAtWgt=           1          16
 AtmWgt=   1.0078250  15.9949146
 NucSpn=           1           0
 AtZEff=   0.0000000   0.0000000
 NQMom=    0.0000000   0.0000000
 NMagM=    2.7928460   0.0000000
 AtZNuc=   1.0000000   8.0000000
 Leave Link  101 at Wed Apr  9 18:02:26 2025, MaxMem=  8053063680 cpu:              41.1 elap:               1.0
 (Enter /export/g16/l103.exe)

 GradGradGradGradGradGradGradGradGradGradGradGradGradGradGradGradGradGrad
 Berny optimization.
 Initialization pass.
                           ----------------------------
                           !    Initial Parameters    !
                           ! (Angstroms and Degrees)  !
 --------------------------                            --------------------------
 ! Name  Definition              Value          Derivative Info.                !
 --------------------------------------------------------------------------------
 ! R1    R(1,2)                  1.373          estimate D2E/DX2                !
 ! R2    R(1,3)                  1.4232         estimate D2E/DX2                !
 ! R3    R(1,9)                  1.0836         estimate D2E/DX2                !
 ! R4    R(2,6)                  1.4389         estimate D2E/DX2                !
 ! R5    R(2,10)                 1.0843         estimate D2E/DX2                !
 ! R6    R(3,4)                  1.373          estimate D2E/DX2                !
 ! R7    R(3,7)                  1.0836         estimate D2E/DX2                !
 ! R8    R(4,5)                  1.4389         estimate D2E/DX2                !
 ! R9    R(4,11)                 1.0843         estimate D2E/DX2                !
 ! R10   R(5,6)                  1.4942         estimate D2E/DX2                !
 ! R11   R(5,12)                 1.2642         estimate D2E/DX2                !
 ! R12   R(6,8)                  1.2642         estimate D2E/DX2                !
 ! A1    A(2,1,3)              120.4366         estimate D2E/DX2                !
 ! A2    A(2,1,9)              120.1482         estimate D2E/DX2                !
 ! A3    A(3,1,9)              119.4152         estimate D2E/DX2                !
 ! A4    A(1,2,6)              122.259          estimate D2E/DX2                !
 ! A5    A(1,2,10)             120.8345         estimate D2E/DX2                !
 ! A6    A(6,2,10)             116.9066         estimate D2E/DX2                !
 ! A7    A(1,3,4)              120.4366         estimate D2E/DX2                !
 ! A8    A(1,3,7)              119.4152         estimate D2E/DX2                !
 ! A9    A(4,3,7)              120.1482         estimate D2E/DX2                !
 ! A10   A(3,4,5)              122.259          estimate D2E/DX2                !
 ! A11   A(3,4,11)             120.8345         estimate D2E/DX2                !
 ! A12   A(5,4,11)             116.9066         estimate D2E/DX2                !
 ! A13   A(4,5,6)              117.3045         estimate D2E/DX2                !
 ! A14   A(4,5,12)             121.7865         estimate D2E/DX2                !
 ! A15   A(6,5,12)             120.909          estimate D2E/DX2                !
 ! A16   A(2,6,5)              117.3045         estimate D2E/DX2                !
 ! A17   A(2,6,8)              121.7865         estimate D2E/DX2                !
 ! A18   A(5,6,8)              120.909          estimate D2E/DX2                !
 ! D1    D(3,1,2,6)              0.0            estimate D2E/DX2                !
 ! D2    D(3,1,2,10)           180.0            estimate D2E/DX2                !
 ! D3    D(9,1,2,6)            180.0            estimate D2E/DX2                !
 ! D4    D(9,1,2,10)             0.0            estimate D2E/DX2                !
 ! D5    D(2,1,3,4)              0.0            estimate D2E/DX2                !
 ! D6    D(2,1,3,7)            180.0            estimate D2E/DX2                !
 ! D7    D(9,1,3,4)            180.0            estimate D2E/DX2                !
 ! D8    D(9,1,3,7)              0.0            estimate D2E/DX2                !
 ! D9    D(1,2,6,5)              0.0            estimate D2E/DX2                !
 ! D10   D(1,2,6,8)            180.0            estimate D2E/DX2                !
 ! D11   D(10,2,6,5)           180.0            estimate D2E/DX2                !
 ! D12   D(10,2,6,8)             0.0            estimate D2E/DX2                !
 ! D13   D(1,3,4,5)              0.0            estimate D2E/DX2                !
 ! D14   D(1,3,4,11)           180.0            estimate D2E/DX2                !
 ! D15   D(7,3,4,5)            180.0            estimate D2E/DX2                !
 ! D16   D(7,3,4,11)             0.0            estimate D2E/DX2                !
 ! D17   D(3,4,5,6)              0.0            estimate D2E/DX2                !
 ! D18   D(3,4,5,12)           180.0            estimate D2E/DX2                !
 ! D19   D(11,4,5,6)           180.0            estimate D2E/DX2                !
 ! D20   D(11,4,5,12)            0.0            estimate D2E/DX2                !
 ! D21   D(4,5,6,2)              0.0            estimate D2E/DX2                !
 ! D22   D(4,5,6,8)            180.0            estimate D2E/DX2                !
 ! D23   D(12,5,6,2)           180.0            estimate D2E/DX2                !
 ! D24   D(12,5,6,8)             0.0            estimate D2E/DX2                !
 --------------------------------------------------------------------------------
 Trust Radius=3.00D-01 FncErr=5.00D-06 GrdErr=5.00D-06 EigMax=2.50D+02 EigMin=1.00D-04
 Number of steps in this run=     64 maximum allowed number of steps=    100.
 GradGradGradGradGradGradGradGradGradGradGradGradGradGradGradGradGradGrad

 Leave Link  103 at Wed Apr  9 18:02:26 2025, MaxMem=  8053063680 cpu:               2.6 elap:               0.1
 (Enter /export/g16/l202.exe)
                          Input orientation:                          
 ---------------------------------------------------------------------
 Center     Atomic      Atomic             Coordinates (Angstroms)
 Number     Number       Type             X           Y           Z
 ---------------------------------------------------------------------
      1          6           0        1.803560    0.711610    0.000000
      2          6           0        0.619790    1.407140    0.000000
      3          6           0        1.803560   -0.711610    0.000000
      4          6           0        0.619790   -1.407140    0.000000
      5          6           0       -0.658770   -0.747100    0.000000
      6          6           0       -0.658770    0.747100    0.000000
      7          1           0        2.747440   -1.243790    0.000000
      8          8           0       -1.743400    1.396470    0.000000
      9          1           0        2.747440    1.243790    0.000000
     10          1           0        0.612260    2.491460    0.000000
     11          1           0        0.612260   -2.491460    0.000000
     12          8           0       -1.743400   -1.396470    0.000000
 ---------------------------------------------------------------------
                    Distance matrix (angstroms):
                    1          2          3          4          5
     1  C    0.000000
     2  C    1.372980   0.000000
     3  C    1.423220   2.427017   0.000000
     4  C    2.427017   2.814280   1.372980   0.000000
     5  C    2.861976   2.505088   2.462586   1.438878   0.000000
     6  C    2.462586   1.438878   2.861976   2.505088   1.494200
     7  H    2.171290   3.399165   1.083570   2.133911   3.442233
     8  O    3.612473   2.363214   4.126127   3.666728   2.402356
     9  H    1.083570   2.133911   2.171290   3.399165   3.945366
    10  H    2.141743   1.084346   3.417434   3.898607   3.479050
    11  H    3.417434   3.898607   2.141743   1.084346   2.158312
    12  O    4.126127   3.666728   3.612473   2.363214   1.264161
                    6          7          8          9         10
     6  C    0.000000
     7  H    3.945366   0.000000
     8  O    1.264161   5.209474   0.000000
     9  H    3.442233   2.487580   4.493435   0.000000
    10  H    2.158312   4.302451   2.597718   2.472989   0.000000
    11  H    3.479050   2.472989   4.545892   4.302451   4.982920
    12  O    2.402356   4.493435   2.792940   5.209474   4.545892
                   11         12
    11  H    0.000000
    12  O    2.597718   0.000000
 Stoichiometry    C6H4O2(1-,2)
 Framework group  C2V[SGV(C6H4O2)]
 Deg. of freedom    11
 Full point group                 C2V     NOp   4
 Largest Abelian subgroup         C2V     NOp   4
 Largest concise Abelian subgroup C2      NOp   2
                         Standard orientation:                         
 ---------------------------------------------------------------------
 Center     Atomic      Atomic             Coordinates (Angstroms)
 Number     Number       Type             X           Y           Z
 ---------------------------------------------------------------------
      1          6           0        0.000000    0.711610    1.803561
      2          6           0        0.000000    1.407140    0.619791
      3          6           0        0.000000   -0.711610    1.803561
      4          6           0        0.000000   -1.407140    0.619791
      5          6           0        0.000000   -0.747100   -0.658769
      6          6           0        0.000000    0.747100   -0.658769
      7          1           0        0.000000   -1.243790    2.747441
      8          8           0        0.000000    1.396470   -1.743399
      9          1           0        0.000000    1.243790    2.747441
     10          1           0        0.000000    2.491460    0.612261
     11          1           0        0.000000   -2.491460    0.612261
     12          8           0        0.000000   -1.396470   -1.743399
 ---------------------------------------------------------------------
 Rotational constants (GHZ):           3.3450074           2.4009042           1.3976968
 Leave Link  202 at Wed Apr  9 18:02:26 2025, MaxMem=  8053063680 cpu:               5.5 elap:               0.2
 (Enter /export/g16/l301.exe)
 Standard basis: 6-31+G(d) (6D, 7F)
 Ernie: Thresh=  0.10000D-02 Tol=  0.10000D-05 Strict=F.
 There are    60 symmetry adapted cartesian basis functions of A1  symmetry.
 There are    20 symmetry adapted cartesian basis functions of A2  symmetry.
 There are    20 symmetry adapted cartesian basis functions of B1  symmetry.
 There are    60 symmetry adapted cartesian basis functions of B2  symmetry.
 There are    60 symmetry adapted basis functions of A1  symmetry.
 There are    20 symmetry adapted basis functions of A2  symmetry.
 There are    20 symmetry adapted basis functions of B1  symmetry.
 There are    60 symmetry adapted basis functions of B2  symmetry.
   160 basis functions,   272 primitive gaussians,   160 cartesian basis functions
    29 alpha electrons       28 beta electrons
       nuclear repulsion energy       325.7934026230 Hartrees.
 IExCor= 4336 DFT=T Ex+Corr=M062X ExCW=0 ScaHFX=  0.540000
 ScaDFX=  1.000000  1.000000  1.000000  1.000000 ScalE2=  1.000000  1.000000
 IRadAn=      5 IRanWt=     -1 IRanGd=            0 ICorTp=0 IEmpDi=  4
 NAtoms=   12 NActive=   12 NUniq=    6 SFac= 4.00D+00 NAtFMM=   60 NAOKFM=F Big=F
 Integral buffers will be    131072 words long.
 Raffenetti 2 integral format.
 Two-electron integral symmetry is turned on.
 ------------------------------------------------------------------------------
 Polarizable Continuum Model (PCM)
 =================================
 Model                : PCM.
 Atomic radii         : SMD-Coulomb.
 Polarization charges : Total charges.
 Charge compensation  : None.
 Solution method      : On-the-fly selection.
 Cavity type          : VdW (van der Waals Surface) (Alpha=1.000).
 Cavity algorithm     : GePol (No added spheres)
                        Default sphere list used, NSphG=   12.
                        Lebedev-Laikov grids with approx.  5.0 points / Ang**2.
                        Smoothing algorithm: York/Karplus (Gamma=1.0000).
                        Polarization charges: spherical gaussians, with
                                              point-specific exponents (IZeta= 3).
                        Self-potential: point-specific (ISelfS= 7).
                        Self-field    : sphere-specific E.n sum rule (ISelfD= 2).
 1st derivatives      : Analytical E(r).r(x)/FMM algorithm (CHGder, D1EAlg=3).
                        Cavity 1st derivative terms included.
 Solvent              : Water, Eps=  78.355300 Eps(inf)=   1.777849
 ------------------------------------------------------------------------------
 Spheres list:
 ISph  on   Nord     Re0    Alpha      Xe            Ye            Ze
    1   C      1    1.8500  1.000      0.000000      0.711610      1.803561
    2   C      2    1.8500  1.000      0.000000      1.407140      0.619791
    3   C      3    1.8500  1.000      0.000000     -0.711610      1.803561
    4   C      4    1.8500  1.000      0.000000     -1.407140      0.619791
    5   C      5    1.8500  1.000      0.000000     -0.747100     -0.658769
    6   C      6    1.8500  1.000      0.000000      0.747100     -0.658769
    7   H      7    1.2000  1.000      0.000000     -1.243790      2.747441
    8   O      8    1.5200  1.000      0.000000      1.396470     -1.743399
    9   H      9    1.2000  1.000      0.000000      1.243790      2.747441
   10   H     10    1.2000  1.000      0.000000      2.491460      0.612261
   11   H     11    1.2000  1.000      0.000000     -2.491460      0.612261
   12   O     12    1.5200  1.000      0.000000     -1.396470     -1.743399
 ------------------------------------------------------------------------------
 GePol: Number of generator spheres                  =      12
 GePol: Total number of spheres                      =      12
 GePol: Number of exposed spheres                    =      12 (100.00%)
 GePol: Number of points                             =    1068
 GePol: Average weight of points                     =       0.12
 GePol: Minimum weight of points                     =   0.39D-07
 GePol: Maximum weight of points                     =    0.21991
 GePol: Number of points with low weight             =      66
 GePol: Fraction of low-weight points (<1% of avg)   =       6.18%
 GePol: Cavity surface area                          =    125.154 Ang**2
 GePol: Cavity volume                                =    103.742 Ang**3
 ------------------------------------------------------------------------------
 Atomic radii for non-electrostatic terms: SMD-CDS.
 ------------------------------------------------------------------------------
 PCM non-electrostatic energy =         0.0067215035 Hartrees.
 Nuclear repulsion after PCM non-electrostatic terms =      325.8001241265 Hartrees.
 Leave Link  301 at Wed Apr  9 18:02:27 2025, MaxMem=  8053063680 cpu:              12.6 elap:               0.4
 (Enter /export/g16/l302.exe)
 NPDir=0 NMtPBC=     1 NCelOv=     1 NCel=       1 NClECP=     1 NCelD=      1
         NCelK=      1 NCelE2=     1 NClLst=     1 CellRange=     0.0.
 One-electron integrals computed using PRISM.
 One-electron integral symmetry used in STVInt
 NBasis=   160 RedAO= T EigKep=  4.26D-06  NBF=    60    20    20    60
 NBsUse=   160 1.00D-06 EigRej= -1.00D+00 NBFU=    60    20    20    60
 Precomputing XC quadrature grid using
 IXCGrd= 4 IRadAn=           5 IRanWt=          -1 IRanGd=           0 AccXCQ= 0.00D+00.
 Generated NRdTot=       0 NPtTot=           0 NUsed=           0 NTot=          32
 NSgBfM=   160   160   160   160   160 MxSgAt=    12 MxSgA2=    12.
 Leave Link  302 at Wed Apr  9 18:02:27 2025, MaxMem=  8053063680 cpu:              24.5 elap:               0.7
 (Enter /export/g16/l303.exe)
 DipDrv:  MaxL=1.
 Leave Link  303 at Wed Apr  9 18:02:28 2025, MaxMem=  8053063680 cpu:              14.3 elap:               0.5
 (Enter /export/g16/l401.exe)
 ExpMin= 4.38D-02 ExpMax= 5.48D+03 ExpMxC= 8.25D+02 IAcc=3 IRadAn=         5 AccDes= 0.00D+00
 Harris functional with IExCor= 1009 and IRadAn=       5 diagonalized for initial guess.
 HarFok:  IExCor= 1009 AccDes= 0.00D+00 IRadAn=         5 IDoV= 1 UseB2=F ITyADJ=14
 ICtDFT=  3500011 ScaDFX=  1.000000  1.000000  1.000000  1.000000
 FoFCou: FMM=F IPFlag=           0 FMFlag=      100000 FMFlg1=           0
         NFxFlg=           0 DoJE=T BraDBF=F KetDBF=T FulRan=T
         wScrn=  0.000000 ICntrl=       500 IOpCl=  0 I1Cent=   200000004 NGrid=           0
         NMat0=    1 NMatS0=      1 NMatT0=    0 NMatD0=    1 NMtDS0=    0 NMtDT0=    0
 Petite list used in FoFCou.
 Harris En= -381.344600838906    
 JPrj=0 DoOrth=F DoCkMO=F.
 Initial guess orbital symmetries:
 Alpha Orbitals:
       Occupied  (B2) (A1) (A1) (B2) (A1) (B2) (A1) (B2) (A1) (B2)
                 (A1) (B2) (A1) (A1) (B2) (A1) (A1) (B2) (B2) (A1)
                 (B1) (B2) (A1) (A2) (B1) (B2) (A2) (A1) (B1)
       Virtual   (B1) (A2) (A1) (B2) (A1) (A2) (A1) (B2) (B1) (A1)
                 (B2) (A2) (B1) (A1) (B2) (A1) (A1) (B1) (B2) (A2)
                 (A1) (A1) (B2) (B2) (A2) (A1) (B2) (B2) (A1) (B2)
                 (A1) (B2) (B1) (A1) (B2) (A1) (B2) (B2) (A1) (A1)
                 (A2) (B2) (A1) (B2) (B2) (B2) (B2) (A1) (B1) (A1)
                 (B2) (A2) (B1) (B1) (A1) (A2) (A1) (A2) (B2) (B2)
                 (A1) (B2) (A1) (B2) (A1) (B2) (A1) (A1) (B2) (A1)
                 (B1) (B2) (B1) (A2) (B2) (A1) (B2) (B2) (B1) (A1)
                 (B1) (A2) (B1) (A1) (B2) (A2) (A1) (A1) (B2) (A2)
                 (B1) (A1) (B2) (A2) (A1) (A1) (A1) (B2) (B2) (A1)
                 (B1) (B2) (A1) (B2) (A2) (A2) (B1) (B2) (A1) (B1)
                 (B2) (A1) (A2) (B2) (A2) (A1) (B2) (A1) (B2) (A1)
                 (B2) (B2) (B2) (A1) (A1) (B2) (A1) (B2) (A1) (B2)
                 (B2)
 Beta  Orbitals:
       Occupied  (B2) (A1) (A1) (B2) (A1) (B2) (A1) (B2) (A1) (B2)
                 (A1) (B2) (A1) (A1) (B2) (A1) (A1) (B2) (B2) (A1)
                 (B1) (B2) (A1) (A2) (B1) (B2) (A2) (A1)
       Virtual   (B1) (B1) (A2) (A1) (B2) (A1) (A2) (A1) (B2) (B1)
                 (A1) (B2) (A2) (B1) (A1) (B2) (A1) (A1) (B1) (B2)
                 (A2) (A1) (A1) (B2) (B2) (A2) (A1) (B2) (B2) (A1)
                 (B2) (A1) (B2) (B1) (A1) (B2) (A1) (B2) (B2) (A1)
                 (A1) (A2) (B2) (A1) (B2) (B2) (B2) (B2) (A1) (B1)
                 (A1) (B2) (A2) (B1) (B1) (A1) (A2) (A1) (A2) (B2)
                 (B2) (A1) (B2) (A1) (B2) (A1) (B2) (A1) (A1) (B2)
                 (A1) (B1) (B2) (B1) (A2) (B2) (A1) (B2) (B2) (B1)
                 (A1) (B1) (A2) (B1) (A1) (B2) (A2) (A1) (A1) (B2)
                 (A2) (B1) (A1) (B2) (A2) (A1) (A1) (A1) (B2) (B2)
                 (A1) (B1) (B2) (A1) (B2) (A2) (A2) (B1) (B2) (A1)
                 (B1) (B2) (A1) (A2) (B2) (A2) (A1) (B2) (A1) (B2)
                 (A1) (B2) (B2) (B2) (A1) (A1) (B2) (A1) (B2) (A1)
                 (B2) (B2)
 The electronic state of the initial guess is 2-B1.
 Initial guess <Sx>= 0.0000 <Sy>= 0.0000 <Sz>= 0.5000 <S**2>= 0.7500 S= 0.5000
 Leave Link  401 at Wed Apr  9 18:02:29 2025, MaxMem=  8053063680 cpu:              22.5 elap:               0.6
 (Enter /export/g16/l502.exe)
 Keep R1 and R2 ints in memory in symmetry-blocked form, NReq=126462492.
 FoFCou: FMM=F IPFlag=           0 FMFlag=           0 FMFlg1=           0
         NFxFlg=           0 DoJE=F BraDBF=F KetDBF=F FulRan=T
         wScrn=  0.000000 ICntrl=       600 IOpCl=  0 I1Cent=           0 NGrid=           0
         NMat0=    1 NMatS0=  12880 NMatT0=    0 NMatD0=    1 NMtDS0=    0 NMtDT0=    0
 Petite list used in FoFCou.
 UHF open shell SCF:
 Using DIIS extrapolation, IDIIS=    10.
 NGot=  8053063680 LenX=  8008794556 LenY=  8008768515
 Requested convergence on RMS density matrix=1.00D-08 within 128 cycles.
 Requested convergence on MAX density matrix=1.00D-06.
 Requested convergence on             energy=1.00D-06.
 Level shift goal  0.100 maximum shift  0.100.
 No special actions if energy rises.
 Dynamic level shift is on during FON iterations.

 Cycle   1  Pass 1  IDiag  1:
 Inv3:  Mode=1 IEnd=     3421872.
 Iteration    1 A*A^-1 deviation from unit magnitude is 3.11D-15 for   1051.
 Iteration    1 A*A^-1 deviation from orthogonality  is 1.54D-15 for    630    343.
 Iteration    1 A^-1*A deviation from unit magnitude is 3.11D-15 for   1051.
 Iteration    1 A^-1*A deviation from orthogonality  is 8.67D-15 for    678    627.
 E= -381.258167243471    
 DIIS: error= 4.74D-02 at cycle   1 NSaved=   1.
 NSaved= 1 IEnMin= 1 EnMin= -381.258167243471     IErMin= 1 ErrMin= 4.74D-02
 ErrMax= 4.74D-02  0.00D+00 EMaxC= 1.00D+00 BMatC= 9.78D-01 BMatP= 9.78D-01
 IDIUse=1 WtCom= 1.00D+00 WtEn= 0.00D+00
 Coeff-Com:  0.100D+01
 Coeff:      0.100D+01
 Gap=     0.207 Goal=     0.100 Shift=    0.000
 T= 1770. Gap= 0.167 NK=0 IS=   30 IE=  160 IFin=   29
          NO(<0.9)=   0  NV(>0.1)=   0     29.00e < EF      0.00e >EF  Err=0.0D+00
 Gap=     0.184 Goal=     0.100 Shift=    0.000
 T= 1770. Gap= 0.176 NK=0 IS=   29 IE=  160 IFin=   28
          NO(<0.9)=   0  NV(>0.1)=   0     28.00e < EF      0.00e >EF  Err=0.0D+00
 GapD=    0.184 DampG=1.000 DampE=0.500 DampFc=0.5000 IDamp=-1.
 Damping current iteration by 5.00D-01
 RMSDP=2.55D-02 MaxDP=8.42D-01              OVMax= 1.69D-01

 Cycle   2  Pass 1  IDiag  1:
 E= -381.364388263899     Delta-E=       -0.106221020429 Rises=F Damp=T
 DIIS: error= 1.45D-02 at cycle   2 NSaved=   2.
 NSaved= 2 IEnMin= 2 EnMin= -381.364388263899     IErMin= 2 ErrMin= 1.45D-02
 ErrMax= 1.45D-02  0.00D+00 EMaxC= 1.00D+00 BMatC= 7.87D-02 BMatP= 9.78D-01
 IDIUse=1 WtCom= 1.00D+00 WtEn= 0.00D+00
 Coeff-Com: -0.557D-01 0.106D+01
 Coeff:     -0.557D-01 0.106D+01
 Gap=     0.254 Goal=     0.100 Shift=    0.000
 T= 1612. Gap= 0.249 NK=0 IS=   30 IE=  160 IFin=   29
          NO(<0.9)=   0  NV(>0.1)=   0     29.00e < EF      0.00e >EF  Err=0.0D+00
 Gap=     0.195 Goal=     0.100 Shift=    0.000
 T= 1612. Gap= 0.191 NK=0 IS=   29 IE=  160 IFin=   28
          NO(<0.9)=   0  NV(>0.1)=   0     28.00e < EF      0.00e >EF  Err=0.0D+00
 GapD=    0.195 DampG=1.000 DampE=0.500 DampFc=0.5000 IDamp=-1.
 Damping current iteration by 5.00D-01
 RMSDP=1.26D-02 MaxDP=5.55D-01 DE=-1.06D-01 OVMax= 9.99D-02

 Cycle   3  Pass 1  IDiag  1:
 E= -381.417266011981     Delta-E=       -0.052877748082 Rises=F Damp=T
 DIIS: error= 6.24D-03 at cycle   3 NSaved=   3.
 NSaved= 3 IEnMin= 3 EnMin= -381.417266011981     IErMin= 3 ErrMin= 6.24D-03
 ErrMax= 6.24D-03  0.00D+00 EMaxC= 1.00D+00 BMatC= 1.78D-02 BMatP= 7.87D-02
 IDIUse=1 WtCom= 1.00D+00 WtEn= 0.00D+00
 Coeff-Com: -0.930D-01-0.200D+00 0.129D+01
 Coeff:     -0.930D-01-0.200D+00 0.129D+01
 Gap=     0.256 Goal=     0.100 Shift=    0.000
 T= 1329. Gap= 0.254 NK=4 IS=   30 IE=   43 IFin=   29
          NO(<0.9)=   0  NV(>0.1)=   0     29.00e < EF      0.00e >EF  Err=0.0D+00
 Gap=     0.200 Goal=     0.100 Shift=    0.000
 T= 1329. Gap= 0.199 NK=4 IS=   29 IE=   43 IFin=   28
          NO(<0.9)=   0  NV(>0.1)=   0     28.00e < EF      0.00e >EF  Err=0.0D+00
 GapD=    0.200 DampG=1.000 DampE=1.000 DampFc=1.0000 IDamp=-1.
 RMSDP=6.87D-03 MaxDP=2.90D-01 DE=-5.29D-02 OVMax= 3.19D-02

 Cycle   4  Pass 1  IDiag  1:
 E= -381.471139328256     Delta-E=       -0.053873316275 Rises=F Damp=F
 DIIS: error= 3.60D-03 at cycle   4 NSaved=   4.
 NSaved= 4 IEnMin= 4 EnMin= -381.471139328256     IErMin= 4 ErrMin= 3.60D-03
 ErrMax= 3.60D-03  0.00D+00 EMaxC= 1.00D+00 BMatC= 4.77D-03 BMatP= 1.78D-02
 IDIUse=1 WtCom= 1.00D+00 WtEn= 0.00D+00
 Coeff-Com: -0.281D-01-0.230D+00 0.589D+00 0.669D+00
 Coeff:     -0.281D-01-0.230D+00 0.589D+00 0.669D+00
 Gap=     0.258 Goal=     0.100 Shift=    0.000
 T=  711. Gap= 0.258 NK=4 IS=   30 IE=   43 IFin=   29
          NO(<0.9)=   0  NV(>0.1)=   0     29.00e < EF      0.00e >EF  Err=0.0D+00
 Gap=     0.197 Goal=     0.100 Shift=    0.000
 T=  711. Gap= 0.197 NK=4 IS=   29 IE=   43 IFin=   28
          NO(<0.9)=   0  NV(>0.1)=   0     28.00e < EF      0.00e >EF  Err=0.0D+00
 GapD=    0.197 DampG=1.000 DampE=1.000 DampFc=1.0000 IDamp=-1.
 RMSDP=5.30D-04 MaxDP=1.27D-02 DE=-5.39D-02 OVMax= 1.45D-02

 Cycle   5  Pass 1  IDiag  1:
 E= -381.472286364613     Delta-E=       -0.001147036357 Rises=F Damp=F
 DIIS: error= 7.55D-04 at cycle   5 NSaved=   5.
 NSaved= 5 IEnMin= 5 EnMin= -381.472286364613     IErMin= 5 ErrMin= 7.55D-04
 ErrMax= 7.55D-04  0.00D+00 EMaxC= 1.00D+00 BMatC= 1.28D-04 BMatP= 4.77D-03
 IDIUse=1 WtCom= 1.00D+00 WtEn= 0.00D+00
 Coeff-Com: -0.534D-02-0.672D-01 0.146D+00 0.204D+00 0.722D+00
 Coeff:     -0.534D-02-0.672D-01 0.146D+00 0.204D+00 0.722D+00
 Gap=     0.258 Goal=     0.100 Shift=    0.000
 Gap=     0.199 Goal=     0.100 Shift=    0.000
 RMSDP=2.05D-04 MaxDP=6.16D-03 DE=-1.15D-03 OVMax= 3.92D-03

 Cycle   6  Pass 1  IDiag  1:
 E= -381.472344883240     Delta-E=       -0.000058518627 Rises=F Damp=F
 DIIS: error= 4.10D-04 at cycle   6 NSaved=   6.
 NSaved= 6 IEnMin= 6 EnMin= -381.472344883240     IErMin= 6 ErrMin= 4.10D-04
 ErrMax= 4.10D-04  0.00D+00 EMaxC= 1.00D+00 BMatC= 2.46D-05 BMatP= 1.28D-04
 IDIUse=1 WtCom= 1.00D+00 WtEn= 0.00D+00
 Coeff-Com:  0.463D-02 0.274D-01-0.782D-01-0.848D-01 0.115D+00 0.102D+01
 Coeff:      0.463D-02 0.274D-01-0.782D-01-0.848D-01 0.115D+00 0.102D+01
 Gap=     0.259 Goal=     0.100 Shift=    0.000
 Gap=     0.199 Goal=     0.100 Shift=    0.000
 RMSDP=1.15D-04 MaxDP=3.89D-03 DE=-5.85D-05 OVMax= 5.83D-03

 Cycle   7  Pass 1  IDiag  1:
 E= -381.472372543981     Delta-E=       -0.000027660742 Rises=F Damp=F
 DIIS: error= 1.91D-04 at cycle   7 NSaved=   7.
 NSaved= 7 IEnMin= 7 EnMin= -381.472372543981     IErMin= 7 ErrMin= 1.91D-04
 ErrMax= 1.91D-04  0.00D+00 EMaxC= 1.00D+00 BMatC= 7.40D-06 BMatP= 2.46D-05
 IDIUse=1 WtCom= 1.00D+00 WtEn= 0.00D+00
 Coeff-Com:  0.226D-02 0.165D-01-0.406D-01-0.607D-01-0.205D+00 0.208D+00
 Coeff-Com:  0.108D+01
 Coeff:      0.226D-02 0.165D-01-0.406D-01-0.607D-01-0.205D+00 0.208D+00
 Coeff:      0.108D+01
 Gap=     0.259 Goal=     0.100 Shift=    0.000
 Gap=     0.199 Goal=     0.100 Shift=    0.000
 RMSDP=5.28D-05 MaxDP=1.25D-03 DE=-2.77D-05 OVMax= 2.86D-03

 Cycle   8  Pass 1  IDiag  1:
 E= -381.472380082788     Delta-E=       -0.000007538807 Rises=F Damp=F
 DIIS: error= 5.62D-05 at cycle   8 NSaved=   8.
 NSaved= 8 IEnMin= 8 EnMin= -381.472380082788     IErMin= 8 ErrMin= 5.62D-05
 ErrMax= 5.62D-05  0.00D+00 EMaxC= 1.00D+00 BMatC= 1.22D-06 BMatP= 7.40D-06
 IDIUse=1 WtCom= 1.00D+00 WtEn= 0.00D+00
 Coeff-Com:  0.255D-03 0.106D-02-0.200D-02-0.104D-01-0.902D-01-0.441D-01
 Coeff-Com:  0.361D+00 0.784D+00
 Coeff:      0.255D-03 0.106D-02-0.200D-02-0.104D-01-0.902D-01-0.441D-01
 Coeff:      0.361D+00 0.784D+00
 Gap=     0.259 Goal=     0.100 Shift=    0.000
 Gap=     0.200 Goal=     0.100 Shift=    0.000
 RMSDP=1.83D-05 MaxDP=6.65D-04 DE=-7.54D-06 OVMax= 7.33D-04

 Cycle   9  Pass 1  IDiag  1:
 E= -381.472380785634     Delta-E=       -0.000000702846 Rises=F Damp=F
 DIIS: error= 4.67D-05 at cycle   9 NSaved=   9.
 NSaved= 9 IEnMin= 9 EnMin= -381.472380785634     IErMin= 9 ErrMin= 4.67D-05
 ErrMax= 4.67D-05  0.00D+00 EMaxC= 1.00D+00 BMatC= 2.29D-07 BMatP= 1.22D-06
 IDIUse=1 WtCom= 1.00D+00 WtEn= 0.00D+00
 Coeff-Com: -0.508D-03-0.480D-02 0.117D-01 0.127D-01 0.213D-01-0.712D-01
 Coeff-Com: -0.156D+00 0.274D+00 0.912D+00
 Coeff:     -0.508D-03-0.480D-02 0.117D-01 0.127D-01 0.213D-01-0.712D-01
 Coeff:     -0.156D+00 0.274D+00 0.912D+00
 Gap=     0.259 Goal=     0.100 Shift=    0.000
 Gap=     0.199 Goal=     0.100 Shift=    0.000
 RMSDP=1.39D-05 MaxDP=4.95D-04 DE=-7.03D-07 OVMax= 4.93D-04

 Cycle  10  Pass 1  IDiag  1:
 E= -381.472380958749     Delta-E=       -0.000000173115 Rises=F Damp=F
 DIIS: error= 9.85D-06 at cycle  10 NSaved=  10.
 NSaved=10 IEnMin=10 EnMin= -381.472380958749     IErMin=10 ErrMin= 9.85D-06
 ErrMax= 9.85D-06  0.00D+00 EMaxC= 1.00D+00 BMatC= 1.93D-08 BMatP= 2.29D-07
 IDIUse=1 WtCom= 1.00D+00 WtEn= 0.00D+00
 Coeff-Com:  0.881D-04 0.449D-03-0.133D-02-0.128D-02 0.579D-02 0.975D-02
 Coeff-Com: -0.587D-02-0.138D+00-0.787D-01 0.121D+01
 Coeff:      0.881D-04 0.449D-03-0.133D-02-0.128D-02 0.579D-02 0.975D-02
 Coeff:     -0.587D-02-0.138D+00-0.787D-01 0.121D+01
 Gap=     0.259 Goal=     0.100 Shift=    0.000
 Gap=     0.199 Goal=     0.100 Shift=    0.000
 RMSDP=3.26D-06 MaxDP=1.17D-04 DE=-1.73D-07 OVMax= 1.81D-04

 Cycle  11  Pass 1  IDiag  1:
 E= -381.472380979092     Delta-E=       -0.000000020342 Rises=F Damp=F
 DIIS: error= 2.52D-06 at cycle  11 NSaved=  11.
 NSaved=11 IEnMin=11 EnMin= -381.472380979092     IErMin=11 ErrMin= 2.52D-06
 ErrMax= 2.52D-06  0.00D+00 EMaxC= 1.00D+00 BMatC= 2.06D-09 BMatP= 1.93D-08
 IDIUse=1 WtCom= 1.00D+00 WtEn= 0.00D+00
 Coeff-Com:  0.576D-04 0.468D-03-0.117D-02-0.142D-02-0.183D-02 0.540D-02
 Coeff-Com:  0.226D-01-0.291D-01-0.957D-01-0.115D+00 0.122D+01
 Coeff:      0.576D-04 0.468D-03-0.117D-02-0.142D-02-0.183D-02 0.540D-02
 Coeff:      0.226D-01-0.291D-01-0.957D-01-0.115D+00 0.122D+01
 Gap=     0.259 Goal=     0.100 Shift=    0.000
 Gap=     0.199 Goal=     0.100 Shift=    0.000
 RMSDP=1.07D-06 MaxDP=3.02D-05 DE=-2.03D-08 OVMax= 5.85D-05

 Cycle  12  Pass 1  IDiag  1:
 E= -381.472380981530     Delta-E=       -0.000000002439 Rises=F Damp=F
 DIIS: error= 9.03D-07 at cycle  12 NSaved=  12.
 NSaved=12 IEnMin=12 EnMin= -381.472380981530     IErMin=12 ErrMin= 9.03D-07
 ErrMax= 9.03D-07  0.00D+00 EMaxC= 1.00D+00 BMatC= 1.56D-10 BMatP= 2.06D-09
 IDIUse=1 WtCom= 1.00D+00 WtEn= 0.00D+00
 Coeff-Com: -0.292D-04-0.205D-03 0.531D-03 0.562D-03 0.312D-03-0.314D-02
 Coeff-Com: -0.587D-02 0.199D-01 0.372D-01-0.640D-01-0.401D+00 0.142D+01
 Coeff:     -0.292D-04-0.205D-03 0.531D-03 0.562D-03 0.312D-03-0.314D-02
 Coeff:     -0.587D-02 0.199D-01 0.372D-01-0.640D-01-0.401D+00 0.142D+01
 Gap=     0.259 Goal=     0.100 Shift=    0.000
 Gap=     0.199 Goal=     0.100 Shift=    0.000
 RMSDP=4.22D-07 MaxDP=8.31D-06 DE=-2.44D-09 OVMax= 1.64D-05

 Cycle  13  Pass 1  IDiag  1:
 E= -381.472380981785     Delta-E=       -0.000000000255 Rises=F Damp=F
 DIIS: error= 2.57D-07 at cycle  13 NSaved=  13.
 NSaved=13 IEnMin=13 EnMin= -381.472380981785     IErMin=13 ErrMin= 2.57D-07
 ErrMax= 2.57D-07  0.00D+00 EMaxC= 1.00D+00 BMatC= 7.84D-12 BMatP= 1.56D-10
 IDIUse=1 WtCom= 1.00D+00 WtEn= 0.00D+00
 Coeff-Com:  0.399D-05 0.322D-04-0.805D-04-0.783D-04-0.586D-04 0.419D-03
 Coeff-Com:  0.362D-03-0.257D-02-0.327D-02 0.226D-01 0.465D-02-0.312D+00
 Coeff-Com:  0.129D+01
 Coeff:      0.399D-05 0.322D-04-0.805D-04-0.783D-04-0.586D-04 0.419D-03
 Coeff:      0.362D-03-0.257D-02-0.327D-02 0.226D-01 0.465D-02-0.312D+00
 Coeff:      0.129D+01
 Gap=     0.259 Goal=     0.100 Shift=    0.000
 Gap=     0.199 Goal=     0.100 Shift=    0.000
 RMSDP=7.65D-08 MaxDP=1.31D-06 DE=-2.55D-10 OVMax= 5.09D-06

 Cycle  14  Pass 1  IDiag  1:
 E= -381.472380981798     Delta-E=       -0.000000000013 Rises=F Damp=F
 DIIS: error= 5.93D-08 at cycle  14 NSaved=  14.
 NSaved=14 IEnMin=14 EnMin= -381.472380981798     IErMin=14 ErrMin= 5.93D-08
 ErrMax= 5.93D-08  0.00D+00 EMaxC= 1.00D+00 BMatC= 4.10D-13 BMatP= 7.84D-12
 IDIUse=1 WtCom= 1.00D+00 WtEn= 0.00D+00
 Coeff-Com:  0.845D-06 0.196D-05-0.732D-05-0.731D-05 0.289D-04 0.464D-04
 Coeff-Com:  0.133D-03-0.625D-03-0.108D-02 0.602D-03 0.166D-01-0.373D-01
 Coeff-Com: -0.151D+00 0.117D+01
 Coeff:      0.845D-06 0.196D-05-0.732D-05-0.731D-05 0.289D-04 0.464D-04
 Coeff:      0.133D-03-0.625D-03-0.108D-02 0.602D-03 0.166D-01-0.373D-01
 Coeff:     -0.151D+00 0.117D+01
 Gap=     0.259 Goal=     0.100 Shift=    0.000
 Gap=     0.199 Goal=     0.100 Shift=    0.000
 RMSDP=2.36D-08 MaxDP=7.64D-07 DE=-1.33D-11 OVMax= 1.09D-06

 Cycle  15  Pass 1  IDiag  1:
 E= -381.472380981800     Delta-E=       -0.000000000001 Rises=F Damp=F
 DIIS: error= 7.62D-09 at cycle  15 NSaved=  15.
 NSaved=15 IEnMin=15 EnMin= -381.472380981800     IErMin=15 ErrMin= 7.62D-09
 ErrMax= 7.62D-09  0.00D+00 EMaxC= 1.00D+00 BMatC= 1.45D-14 BMatP= 4.10D-13
 IDIUse=1 WtCom= 1.00D+00 WtEn= 0.00D+00
 Coeff-Com: -0.251D-06-0.108D-05 0.311D-05 0.391D-05-0.678D-06-0.144D-04
 Coeff-Com: -0.411D-04 0.165D-03 0.239D-03-0.818D-03-0.210D-02 0.140D-01
 Coeff-Com: -0.228D-01-0.153D+00 0.116D+01
 Coeff:     -0.251D-06-0.108D-05 0.311D-05 0.391D-05-0.678D-06-0.144D-04
 Coeff:     -0.411D-04 0.165D-03 0.239D-03-0.818D-03-0.210D-02 0.140D-01
 Coeff:     -0.228D-01-0.153D+00 0.116D+01
 Gap=     0.259 Goal=     0.100 Shift=    0.000
 Gap=     0.199 Goal=     0.100 Shift=    0.000
 RMSDP=3.05D-09 MaxDP=1.70D-07 DE=-1.36D-12 OVMax= 1.55D-07

 Error on total polarization charges =  0.06086
 SCF Done:  E(UM062X) =  -381.472380982     A.U. after   15 cycles
            NFock= 15  Conv=0.30D-08     -V/T= 2.0085
 <Sx>= 0.0000 <Sy>= 0.0000 <Sz>= 0.5000 <S**2>= 0.7676 S= 0.5087
 <L.S>= 0.000000000000E+00
 KE= 3.782610938309D+02 PE=-1.553065626756D+03 EE= 4.675320278173D+02
 SMD-CDS (non-electrostatic) energy       (kcal/mol) =       4.22
 (included in total energy above)
 Annihilation of the first spin contaminant:
 S**2 before annihilation     0.7676,   after     0.7502
 Leave Link  502 at Wed Apr  9 18:02:42 2025, MaxMem=  8053063680 cpu:             556.5 elap:              12.9
 (Enter /export/g16/l508.exe)
 QCSCF skips out because SCF is already converged.
 Leave Link  508 at Wed Apr  9 18:02:42 2025, MaxMem=  8053063680 cpu:               2.8 elap:               0.1
 (Enter /export/g16/l601.exe)
 Copying SCF densities to generalized density rwf, IOpCl= 1 IROHF=0.

 **********************************************************************

            Population analysis using the SCF density.

 **********************************************************************

 Orbital symmetries:
 Alpha Orbitals:
       Occupied  (B2) (A1) (A1) (B2) (A1) (B2) (B2) (A1) (A1) (B2)
                 (A1) (B2) (A1) (A1) (B2) (A1) (A1) (B2) (B1) (A1)
                 (B2) (B2) (A2) (A1) (B1) (B2) (A1) (A2) (B1)
       Virtual   (A1) (B1) (A1) (B2) (A2) (B2) (A1) (B1) (B2) (A2)
                 (A1) (B1) (A1) (A2) (B2) (B1) (A1) (B2) (A1) (A2)
                 (B2) (A1) (B2) (A1) (A1) (A2) (B2) (B2) (B1) (A1)
                 (B2) (B2) (A1) (B2) (A1) (A1) (B2) (A2) (A1) (B2)
                 (B2) (A1) (B2) (A1) (B2) (B2) (A1) (B1) (B2) (A1)
                 (B1) (A2) (B2) (B1) (A2) (A1) (A1) (A2) (B2) (B2)
                 (A1) (B2) (A1) (B2) (A1) (A1) (B2) (A1) (B2) (A1)
                 (B2) (B1) (B1) (B2) (A1) (A2) (B2) (B2) (A1) (B1)
                 (A1) (B2) (A2) (B1) (B1) (A2) (A1) (B2) (A1) (A2)
                 (A1) (B1) (B2) (A2) (A1) (A1) (A1) (B2) (B2) (A1)
                 (B1) (B2) (A1) (B2) (A2) (A2) (B1) (B2) (A1) (B1)
                 (B2) (A1) (A2) (A2) (B2) (A1) (B2) (A1) (B2) (A1)
                 (B2) (B2) (B2) (A1) (A1) (B2) (A1) (B2) (A1) (B2)
                 (B2)
 Beta  Orbitals:
       Occupied  (B2) (A1) (A1) (B2) (A1) (B2) (B2) (A1) (A1) (B2)
                 (A1) (B2) (A1) (A1) (B2) (A1) (A1) (B2) (A1) (B2)
                 (B1) (B2) (A1) (A2) (B1) (B2) (A1) (A2)
       Virtual   (B1) (A1) (A1) (B2) (B1) (B2) (A1) (A2) (B1) (B2)
                 (A1) (B1) (A2) (A1) (A2) (B2) (B1) (A1) (B2) (A1)
                 (A2) (B2) (A1) (B2) (A1) (A1) (A2) (B2) (B2) (B1)
                 (A1) (B2) (A1) (B2) (B2) (A1) (A1) (B2) (A2) (A1)
                 (B2) (B2) (A1) (B2) (A1) (B2) (B2) (A1) (B1) (B2)
                 (A1) (B1) (A2) (B2) (B1) (A2) (A1) (A1) (A2) (B2)
                 (B2) (A1) (B2) (A1) (B2) (A1) (A1) (B2) (A1) (B2)
                 (A1) (B2) (B1) (B1) (B2) (A1) (A2) (B2) (B2) (A1)
                 (B1) (A1) (B2) (A2) (B1) (B1) (A2) (A1) (B2) (A1)
                 (A2) (A1) (B1) (B2) (A2) (A1) (A1) (A1) (B2) (B2)
                 (B1) (A1) (B2) (A1) (B2) (A2) (A2) (B1) (B2) (A1)
                 (B1) (B2) (A1) (A2) (A2) (B2) (A1) (B2) (A1) (B2)
                 (A1) (B2) (B2) (B2) (A1) (A1) (B2) (A1) (B2) (A1)
                 (B2) (B2)
 The electronic state is 2-B1.
 Alpha  occ. eigenvalues --  -19.61757 -19.61756 -10.60731 -10.60686 -10.55158
 Alpha  occ. eigenvalues --  -10.55092 -10.54059 -10.54058  -1.14615  -1.11721
 Alpha  occ. eigenvalues --   -0.93403  -0.82762  -0.79189  -0.67732  -0.65529
 Alpha  occ. eigenvalues --   -0.56799  -0.54537  -0.52820  -0.50083  -0.49192
 Alpha  occ. eigenvalues --   -0.48236  -0.43891  -0.43538  -0.42031  -0.39397
 Alpha  occ. eigenvalues --   -0.34915  -0.30758  -0.28835  -0.22471
 Alpha virt. eigenvalues --    0.03413   0.03448   0.04209   0.04605   0.04716
 Alpha virt. eigenvalues --    0.06201   0.06591   0.07966   0.09104   0.10263
 Alpha virt. eigenvalues --    0.10415   0.10473   0.11558   0.13765   0.15102
 Alpha virt. eigenvalues --    0.15339   0.15483   0.16416   0.16728   0.16829
 Alpha virt. eigenvalues --    0.19665   0.19964   0.21577   0.22546   0.23331
 Alpha virt. eigenvalues --    0.23578   0.25260   0.26020   0.26958   0.27713
 Alpha virt. eigenvalues --    0.28937   0.30887   0.31294   0.32195   0.32489
 Alpha virt. eigenvalues --    0.34581   0.35314   0.35674   0.38257   0.39145
 Alpha virt. eigenvalues --    0.42376   0.44079   0.47213   0.47572   0.53119
 Alpha virt. eigenvalues --    0.64566   0.67034   0.68948   0.71455   0.73147
 Alpha virt. eigenvalues --    0.75834   0.76691   0.77685   0.79614   0.80433
 Alpha virt. eigenvalues --    0.83179   0.86902   0.87990   0.93558   0.97418
 Alpha virt. eigenvalues --    0.98962   1.01575   1.02113   1.07540   1.08891
 Alpha virt. eigenvalues --    1.10217   1.10708   1.14987   1.16162   1.21926
 Alpha virt. eigenvalues --    1.22953   1.28103   1.29296   1.33879   1.35186
 Alpha virt. eigenvalues --    1.35709   1.38822   1.40658   1.41995   1.44197
 Alpha virt. eigenvalues --    1.48209   1.50314   1.50563   1.51042   1.52790
 Alpha virt. eigenvalues --    1.55411   1.65735   1.76703   1.77142   1.80954
 Alpha virt. eigenvalues --    1.87598   1.88735   1.89850   1.95417   1.98096
 Alpha virt. eigenvalues --    2.00226   2.04805   2.06273   2.09196   2.12633
 Alpha virt. eigenvalues --    2.12797   2.15867   2.18596   2.19231   2.27289
 Alpha virt. eigenvalues --    2.31624   2.34888   2.36755   2.41500   2.52016
 Alpha virt. eigenvalues --    2.61302   2.64309   2.64601   2.70977   2.72893
 Alpha virt. eigenvalues --    2.76770   2.87341   2.88405   2.93464   3.13884
 Alpha virt. eigenvalues --    3.21430   3.26716   3.40592   4.13412   4.25860
 Alpha virt. eigenvalues --    4.28422   4.33459   4.40610   4.47238   4.60026
 Alpha virt. eigenvalues --    5.11565
  Beta  occ. eigenvalues --  -19.61242 -19.61241 -10.60670 -10.60628 -10.55092
  Beta  occ. eigenvalues --  -10.55030 -10.54048 -10.54047  -1.13317  -1.10288
  Beta  occ. eigenvalues --   -0.92890  -0.82521  -0.78112  -0.67323  -0.65021
  Beta  occ. eigenvalues --   -0.56243  -0.54120  -0.52147  -0.48379  -0.47948
  Beta  occ. eigenvalues --   -0.47117  -0.43504  -0.41716  -0.39633  -0.36772
  Beta  occ. eigenvalues --   -0.34063  -0.30067  -0.27128
  Beta virt. eigenvalues --   -0.07183   0.03323   0.04170   0.04740   0.05517
  Beta virt. eigenvalues --    0.06285   0.06638   0.07181   0.07304   0.09146
  Beta virt. eigenvalues --    0.09854   0.10200   0.10311   0.11644   0.14095
  Beta virt. eigenvalues --    0.15200   0.15444   0.15454   0.16122   0.16181
  Beta virt. eigenvalues --    0.17317   0.19706   0.20030   0.21562   0.22388
  Beta virt. eigenvalues --    0.23439   0.24516   0.25292   0.26016   0.27141
  Beta virt. eigenvalues --    0.27888   0.29088   0.30927   0.31025   0.32532
  Beta virt. eigenvalues --    0.32740   0.34665   0.35367   0.35960   0.38725
  Beta virt. eigenvalues --    0.39260   0.42805   0.44483   0.47263   0.48143
  Beta virt. eigenvalues --    0.53680   0.65208   0.67283   0.69969   0.72089
  Beta virt. eigenvalues --    0.73875   0.76757   0.77169   0.78147   0.80145
  Beta virt. eigenvalues --    0.81130   0.83485   0.87280   0.88335   0.93935
  Beta virt. eigenvalues --    0.97671   0.99150   1.01816   1.02424   1.07937
  Beta virt. eigenvalues --    1.09523   1.11183   1.11381   1.15176   1.16298
  Beta virt. eigenvalues --    1.22361   1.23430   1.30141   1.31223   1.34167
  Beta virt. eigenvalues --    1.35597   1.38047   1.39297   1.40985   1.42384
  Beta virt. eigenvalues --    1.45642   1.48669   1.50656   1.51915   1.52105
  Beta virt. eigenvalues --    1.54321   1.55961   1.66166   1.77088   1.77628
  Beta virt. eigenvalues --    1.81976   1.88257   1.89806   1.90545   1.96473
  Beta virt. eigenvalues --    1.98956   2.00737   2.05417   2.06819   2.09825
  Beta virt. eigenvalues --    2.13859   2.13863   2.16490   2.19316   2.20029
  Beta virt. eigenvalues --    2.28362   2.33086   2.35848   2.37705   2.42202
  Beta virt. eigenvalues --    2.53370   2.62215   2.64929   2.65888   2.72385
  Beta virt. eigenvalues --    2.74288   2.78271   2.88622   2.89281   2.94151
  Beta virt. eigenvalues --    3.14354   3.22417   3.28679   3.41758   4.13993
  Beta virt. eigenvalues --    4.26770   4.29061   4.34299   4.41618   4.48134
  Beta virt. eigenvalues --    4.60773   5.12244
          Condensed to atoms (all electrons):
               1          2          3          4          5          6
     1  C    5.217012   0.413174   0.513402  -0.287744   0.051822   0.065002
     2  C    0.413174   6.456155  -0.287744   0.322726  -0.900031   0.099332
     3  C    0.513402  -0.287744   5.217012   0.413174   0.065002   0.051822
     4  C   -0.287744   0.322726   0.413174   6.456155   0.099332  -0.900031
     5  C    0.051822  -0.900031   0.065002   0.099332   6.641871  -0.457194
     6  C    0.065002   0.099332   0.051822  -0.900031  -0.457194   6.641871
     7  H   -0.000876   0.019814   0.330929  -0.024924   0.003863  -0.016142
     8  O    0.003433  -0.172853  -0.021029  -0.005645  -0.246929   0.452641
     9  H    0.330929  -0.024924  -0.000876   0.019814  -0.016142   0.003863
    10  H   -0.004884   0.370505   0.022259  -0.019798   0.012490  -0.070509
    11  H    0.022259  -0.019798  -0.004884   0.370505  -0.070509   0.012490
    12  O   -0.021029  -0.005645   0.003433  -0.172853   0.452641  -0.246929
               7          8          9         10         11         12
     1  C   -0.000876   0.003433   0.330929  -0.004884   0.022259  -0.021029
     2  C    0.019814  -0.172853  -0.024924   0.370505  -0.019798  -0.005645
     3  C    0.330929  -0.021029  -0.000876   0.022259  -0.004884   0.003433
     4  C   -0.024924  -0.005645   0.019814  -0.019798   0.370505  -0.172853
     5  C    0.003863  -0.246929  -0.016142   0.012490  -0.070509   0.452641
     6  C   -0.016142   0.452641   0.003863  -0.070509   0.012490  -0.246929
     7  H    0.453114   0.000101  -0.003018  -0.000121  -0.003228  -0.000731
     8  O    0.000101   8.745129  -0.000731  -0.000399  -0.000470   0.013402
     9  H   -0.003018  -0.000731   0.453114  -0.003228  -0.000121   0.000101
    10  H   -0.000121  -0.000399  -0.003228   0.459285   0.000008  -0.000470
    11  H   -0.003228  -0.000470  -0.000121   0.000008   0.459285  -0.000399
    12  O   -0.000731   0.013402   0.000101  -0.000470  -0.000399   8.745129
          Atomic-Atomic Spin Densities.
               1          2          3          4          5          6
     1  C    0.143545  -0.067747   0.074409  -0.011779  -0.001492  -0.026192
     2  C   -0.067747   0.046155  -0.011779  -0.011668   0.004438   0.092104
     3  C    0.074409  -0.011779   0.143545  -0.067747  -0.026192  -0.001492
     4  C   -0.011779  -0.011668  -0.067747   0.046155   0.092104   0.004438
     5  C   -0.001492   0.004438  -0.026192   0.092104   0.100989   0.096290
     6  C   -0.026192   0.092104  -0.001492   0.004438   0.096290   0.100989
     7  H    0.003341  -0.001059  -0.003752   0.000892  -0.001269   0.000960
     8  O    0.003040  -0.025980   0.000464  -0.003574  -0.004383  -0.119049
     9  H   -0.003752   0.000892   0.003341  -0.001059   0.000960  -0.001269
    10  H   -0.000446   0.000306   0.000649  -0.000238   0.000718  -0.000971
    11  H    0.000649  -0.000238  -0.000446   0.000306  -0.000971   0.000718
    12  O    0.000464  -0.003574   0.003040  -0.025980  -0.119049  -0.004383
               7          8          9         10         11         12
     1  C    0.003341   0.003040  -0.003752  -0.000446   0.000649   0.000464
     2  C   -0.001059  -0.025980   0.000892   0.000306  -0.000238  -0.003574
     3  C   -0.003752   0.000464   0.003341   0.000649  -0.000446   0.003040
     4  C    0.000892  -0.003574  -0.001059  -0.000238   0.000306  -0.025980
     5  C   -0.001269  -0.004383   0.000960   0.000718  -0.000971  -0.119049
     6  C    0.000960  -0.119049  -0.001269  -0.000971   0.000718  -0.004383
     7  H   -0.005758  -0.000002  -0.000036   0.000001  -0.000032   0.000015
     8  O   -0.000002   0.369407   0.000015  -0.000063  -0.000006   0.011945
     9  H   -0.000036   0.000015  -0.005758  -0.000032   0.000001  -0.000002
    10  H    0.000001  -0.000063  -0.000032  -0.003063   0.000000  -0.000006
    11  H   -0.000032  -0.000006   0.000001   0.000000  -0.003063  -0.000063
    12  O    0.000015   0.011945  -0.000002  -0.000006  -0.000063   0.369407
 Mulliken charges and spin densities:
               1          2
     1  C   -0.302500   0.114039
     2  C   -0.270712   0.021848
     3  C   -0.302500   0.114039
     4  C   -0.270712   0.021848
     5  C    0.363784   0.142145
     6  C    0.363784   0.142145
     7  H    0.241216  -0.006698
     8  O   -0.766651   0.231814
     9  H    0.241216  -0.006698
    10  H    0.234862  -0.003148
    11  H    0.234862  -0.003148
    12  O   -0.766651   0.231814
 Sum of Mulliken charges =  -1.00000   1.00000
 Mulliken charges and spin densities with hydrogens summed into heavy atoms:
               1          2
     1  C   -0.061284   0.107341
     2  C   -0.035849   0.018700
     3  C   -0.061284   0.107341
     4  C   -0.035849   0.018700
     5  C    0.363784   0.142145
     6  C    0.363784   0.142145
     8  O   -0.766651   0.231814
    12  O   -0.766651   0.231814
 Electronic spatial extent (au):  <R**2>=            830.0682
 Charge=             -1.0000 electrons
 Dipole moment (field-independent basis, Debye):
    X=              0.0000    Y=              0.0000    Z=             10.5136  Tot=             10.5136
 Quadrupole moment (field-independent basis, Debye-Ang):
   XX=            -50.6189   YY=            -56.7965   ZZ=            -64.8650
   XY=              0.0000   XZ=              0.0000   YZ=              0.0000
 Traceless Quadrupole moment (field-independent basis, Debye-Ang):
   XX=              6.8079   YY=              0.6303   ZZ=             -7.4382
   XY=              0.0000   XZ=              0.0000   YZ=              0.0000
 Octapole moment (field-independent basis, Debye-Ang**2):
  XXX=              0.0000  YYY=              0.0000  ZZZ=             49.1784  XYY=              0.0000
  XXY=              0.0000  XXZ=             -6.2760  XZZ=              0.0000  YZZ=              0.0000
  YYZ=             26.6652  XYZ=              0.0000
 Hexadecapole moment (field-independent basis, Debye-Ang**3):
 XXXX=            -59.6553 YYYY=           -467.3832 ZZZZ=           -646.4305 XXXY=              0.0000
 XXXZ=              0.0000 YYYX=              0.0000 YYYZ=              0.0000 ZZZX=              0.0000
 ZZZY=              0.0000 XXYY=            -93.9909 XXZZ=           -119.9188 YYZZ=           -214.1552
 XXYZ=              0.0000 YYXZ=              0.0000 ZZXY=              0.0000
 N-N= 3.258001241265D+02 E-N=-1.553065626696D+03  KE= 3.782610938309D+02
 Symmetry A1   KE= 1.849241038780D+02
 Symmetry A2   KE= 6.184002457917D+00
 Symmetry B1   KE= 6.663707649798D+00
 Symmetry B2   KE= 1.804892798452D+02
 Symmetry A1   SP= 1.711707261459D-14
 Symmetry A2   SP= 5.617762216515D-15
 Symmetry B1   SP= 1.000000000000D+00
 Symmetry B2   SP=-8.029053682627D-15
                          Isotropic Fermi Contact Couplings
        Atom                 a.u.       MegaHertz       Gauss      10(-4) cm-1
     1  C(13)              0.01400      15.73961       5.61628       5.25017
     2  C(13)             -0.00250      -2.81509      -1.00450      -0.93901
     3  C(13)              0.01400      15.73961       5.61628       5.25017
     4  C(13)             -0.00250      -2.81509      -1.00450      -0.93901
     5  C(13)              0.01147      12.89419       4.60097       4.30104
     6  C(13)              0.01147      12.89419       4.60097       4.30104
     7  H(1)              -0.00203      -9.05754      -3.23195      -3.02127
     8  O(17)              0.06186     -37.49808     -13.38025     -12.50801
     9  H(1)              -0.00203      -9.05754      -3.23195      -3.02127
    10  H(1)              -0.00111      -4.93980      -1.76264      -1.64774
    11  H(1)              -0.00111      -4.93980      -1.76264      -1.64774
    12  O(17)              0.06186     -37.49808     -13.38025     -12.50801
 --------------------------------------------------------
       Center         ----  Spin Dipole Couplings  ----
                      3XX-RR        3YY-RR        3ZZ-RR
 --------------------------------------------------------
     1   Atom        0.108018     -0.054565     -0.053453
     2   Atom        0.033212     -0.017301     -0.015911
     3   Atom        0.108018     -0.054565     -0.053453
     4   Atom        0.033212     -0.017301     -0.015911
     5   Atom        0.122921     -0.064679     -0.058243
     6   Atom        0.122921     -0.064679     -0.058243
     7   Atom       -0.003826     -0.000353      0.004179
     8   Atom        0.951916     -0.464774     -0.487142
     9   Atom       -0.003826     -0.000353      0.004179
    10   Atom       -0.005118      0.006620     -0.001502
    11   Atom       -0.005118      0.006620     -0.001502
    12   Atom        0.951916     -0.464774     -0.487142
 --------------------------------------------------------
                        XY            XZ            YZ
 --------------------------------------------------------
     1   Atom        0.000000      0.000000      0.003327
     2   Atom        0.000000      0.000000      0.004697
     3   Atom        0.000000      0.000000     -0.003327
     4   Atom        0.000000      0.000000     -0.004697
     5   Atom        0.000000      0.000000      0.009846
     6   Atom        0.000000      0.000000     -0.009846
     7   Atom        0.000000      0.000000     -0.011441
     8   Atom        0.000000      0.000000      0.017662
     9   Atom        0.000000      0.000000      0.011441
    10   Atom        0.000000      0.000000      0.005720
    11   Atom        0.000000      0.000000     -0.005720
    12   Atom        0.000000      0.000000     -0.017662
 --------------------------------------------------------


 ---------------------------------------------------------------------------------
              Anisotropic Spin Dipole Couplings in Principal Axis System
 ---------------------------------------------------------------------------------

       Atom             a.u.   MegaHertz   Gauss  10(-4) cm-1        Axes

              Baa    -0.0574    -7.700    -2.748    -2.568  0.0000  0.7631 -0.6462
     1 C(13)  Bbb    -0.0506    -6.795    -2.425    -2.267  0.0000  0.6462  0.7631
              Bcc     0.1080    14.495     5.172     4.835  1.0000  0.0000  0.0000
 
              Baa    -0.0214    -2.865    -1.022    -0.956  0.0000  0.7571 -0.6533
     2 C(13)  Bbb    -0.0119    -1.591    -0.568    -0.531  0.0000  0.6533  0.7571
              Bcc     0.0332     4.457     1.590     1.487  1.0000  0.0000  0.0000
 
              Baa    -0.0574    -7.700    -2.748    -2.568  0.0000  0.7631  0.6462
     3 C(13)  Bbb    -0.0506    -6.795    -2.425    -2.267  0.0000 -0.6462  0.7631
              Bcc     0.1080    14.495     5.172     4.835  1.0000  0.0000  0.0000
 
              Baa    -0.0214    -2.865    -1.022    -0.956  0.0000  0.7571  0.6533
     4 C(13)  Bbb    -0.0119    -1.591    -0.568    -0.531  0.0000 -0.6533  0.7571
              Bcc     0.0332     4.457     1.590     1.487  1.0000  0.0000  0.0000
 
              Baa    -0.0718    -9.637    -3.439    -3.215  0.0000  0.8095 -0.5871
     5 C(13)  Bbb    -0.0511    -6.857    -2.447    -2.287  0.0000  0.5871  0.8095
              Bcc     0.1229    16.495     5.886     5.502  1.0000  0.0000  0.0000
 
              Baa    -0.0718    -9.637    -3.439    -3.215  0.0000  0.8095  0.5871
     6 C(13)  Bbb    -0.0511    -6.857    -2.447    -2.287  0.0000 -0.5871  0.8095
              Bcc     0.1229    16.495     5.886     5.502  1.0000  0.0000  0.0000
 
              Baa    -0.0098    -5.202    -1.856    -1.735  0.0000  0.7728  0.6347
     7 H(1)   Bbb    -0.0038    -2.041    -0.728    -0.681  1.0000  0.0000  0.0000
              Bcc     0.0136     7.243     2.585     2.416  0.0000 -0.6347  0.7728
 
              Baa    -0.4969    35.953    12.829    11.993  0.0000 -0.4822  0.8761
     8 O(17)  Bbb    -0.4551    32.927    11.749    10.983  0.0000  0.8761  0.4822
              Bcc     0.9519   -68.880   -24.578   -22.976  1.0000  0.0000  0.0000
 
              Baa    -0.0098    -5.202    -1.856    -1.735  0.0000  0.7728 -0.6347
     9 H(1)   Bbb    -0.0038    -2.041    -0.728    -0.681  1.0000  0.0000  0.0000
              Bcc     0.0136     7.243     2.585     2.416  0.0000  0.6347  0.7728
 
              Baa    -0.0051    -2.731    -0.974    -0.911  1.0000  0.0000  0.0000
    10 H(1)   Bbb    -0.0045    -2.377    -0.848    -0.793  0.0000 -0.4589  0.8885
              Bcc     0.0096     5.108     1.823     1.704  0.0000  0.8885  0.4589
 
              Baa    -0.0051    -2.731    -0.974    -0.911  1.0000  0.0000  0.0000
    11 H(1)   Bbb    -0.0045    -2.377    -0.848    -0.793  0.0000  0.4589  0.8885
              Bcc     0.0096     5.108     1.823     1.704  0.0000  0.8885 -0.4589
 
              Baa    -0.4969    35.953    12.829    11.993  0.0000  0.4822  0.8761
    12 O(17)  Bbb    -0.4551    32.927    11.749    10.983  0.0000  0.8761 -0.4822
              Bcc     0.9519   -68.880   -24.578   -22.976  1.0000  0.0000  0.0000
 

 ---------------------------------------------------------------------------------

 No NMR shielding tensors so no spin-rotation constants.
 Leave Link  601 at Wed Apr  9 18:02:43 2025, MaxMem=  8053063680 cpu:              30.4 elap:               0.8
 (Enter /export/g16/l701.exe)
 ... and contract with generalized density number  0.
 Compute integral first derivatives.
 D1PCM: PCM CHGder 1st derivatives, ID1Alg=3 FixD1E=F DoIter=F DoCFld=F I1PDM=0.
 GePol: Maximum number of non-zero 1st derivatives   =     204
 Leave Link  701 at Wed Apr  9 18:02:44 2025, MaxMem=  8053063680 cpu:              51.0 elap:               1.3
 (Enter /export/g16/l702.exe)
 L702 exits ... SP integral derivatives will be done elsewhere.
 Leave Link  702 at Wed Apr  9 18:02:44 2025, MaxMem=  8053063680 cpu:               5.1 elap:               0.2
 (Enter /export/g16/l703.exe)
 Integral derivatives from FoFJK, PRISM(SPDF).
 Compute integral first derivatives, UseDBF=F ICtDFT=           0.
 Calling FoFJK, ICntrl=      2127 FMM=F ISym2X=1 I1Cent= 0 IOpClX= 1 NMat=1 NMatS=1 NMatT=0.
 FoFJK:  IHMeth= 1 ICntrl=    2127 DoSepK=F KAlg= 0 I1Cent=           0 FoldK=F
 IRaf=         0 NMat=       1 IRICut=       1 DoRegI=T DoRafI=F ISym2E= 1 IDoP0=0 IntGTp=1.
 FoFCou: FMM=F IPFlag=           0 FMFlag=      100000 FMFlg1=         800
         NFxFlg=           0 DoJE=F BraDBF=F KetDBF=F FulRan=T
         wScrn=  0.000000 ICntrl=      2127 IOpCl=  1 I1Cent=           0 NGrid=           0
         NMat0=    1 NMatS0=      1 NMatT0=    0 NMatD0=    1 NMtDS0=    0 NMtDT0=    0
 Petite list used in FoFCou.
 Leave Link  703 at Wed Apr  9 18:02:46 2025, MaxMem=  8053063680 cpu:              82.5 elap:               2.0
 (Enter /export/g16/l716.exe)
 Dipole        = 3.79450563D-16 0.00000000D+00 4.13637904D+00
 ***** Axes restored to original set *****
 -------------------------------------------------------------------
 Center     Atomic                   Forces (Hartrees/Bohr)
 Number     Number              X              Y              Z
 -------------------------------------------------------------------
      1        6          -0.003182488    0.001395893    0.000000000
      2        6           0.001095398   -0.001479742    0.000000000
      3        6          -0.003182488   -0.001395893    0.000000000
      4        6           0.001095398    0.001479742    0.000000000
      5        6           0.008143883    0.004964026    0.000000000
      6        6           0.008143883   -0.004964026    0.000000000
      7        1           0.001702230   -0.001183489    0.000000000
      8        8          -0.007609572    0.000137859    0.000000000
      9        1           0.001702230    0.001183489    0.000000000
     10        1          -0.000149451    0.002435891    0.000000000
     11        1          -0.000149451   -0.002435891    0.000000000
     12        8          -0.007609572   -0.000137859    0.000000000
 -------------------------------------------------------------------
 Cartesian Forces:  Max     0.008143883 RMS     0.003114566
 Leave Link  716 at Wed Apr  9 18:02:47 2025, MaxMem=  8053063680 cpu:               2.7 elap:               0.1
 (Enter /export/g16/l103.exe)

 GradGradGradGradGradGradGradGradGradGradGradGradGradGradGradGradGradGrad
 Berny optimization.
 FormGI is forming the generalized inverse of G from B-inverse, IUseBI=4.
 Internal  Forces:  Max     0.006599706 RMS     0.002137816
 Search for a local minimum.
 Step number   1 out of a maximum of   64
 All quantities printed in internal units (Hartrees-Bohrs-Radians)
 RMS Force = .21378D-02 SwitMx=.10000D-02 MixMth= 1
 Mixed Optimization -- RFO/linear search
 Second derivative matrix not updated -- first step.
 ITU=  0
     Eigenvalues ---    0.01125   0.01303   0.01309   0.01895   0.01910
     Eigenvalues ---    0.02027   0.02101   0.02143   0.02263   0.16000
     Eigenvalues ---    0.16000   0.16000   0.16000   0.22000   0.22453
     Eigenvalues ---    0.24435   0.25000   0.25000   0.32314   0.35474
     Eigenvalues ---    0.35474   0.35566   0.35566   0.37850   0.39134
     Eigenvalues ---    0.41139   0.48410   0.49752   0.78216   0.78216
 RFO step:  Lambda=-6.87387932D-04 EMin= 1.12465715D-02
 Linear search not attempted -- first point.
 Iteration  1 RMS(Cart)=  0.01091588 RMS(Int)=  0.00010679
 Iteration  2 RMS(Cart)=  0.00012189 RMS(Int)=  0.00000184
 Iteration  3 RMS(Cart)=  0.00000001 RMS(Int)=  0.00000184
 ITry= 1 IFail=0 DXMaxC= 4.72D-02 DCOld= 1.00D+10 DXMaxT= 3.00D-01 DXLimC= 3.00D+00 Rises=F
 ClnCor:  largest displacement from symmetrization is 6.12D-12 for atom    12.
 Variable       Old X    -DE/DX   Delta X   Delta X   Delta X     New X
                                 (Linear)    (Quad)   (Total)
    R1        2.59456  -0.00087   0.00000  -0.00161  -0.00161   2.59295
    R2        2.68950   0.00338   0.00000   0.00831   0.00831   2.69781
    R3        2.04765   0.00206   0.00000   0.00579   0.00579   2.05344
    R4        2.71908  -0.00040   0.00000  -0.00115  -0.00115   2.71794
    R5        2.04912   0.00244   0.00000   0.00686   0.00686   2.05597
    R6        2.59456  -0.00087   0.00000  -0.00161  -0.00161   2.59295
    R7        2.04765   0.00206   0.00000   0.00579   0.00579   2.05344
    R8        2.71908  -0.00040   0.00000  -0.00115  -0.00115   2.71794
    R9        2.04912   0.00244   0.00000   0.00686   0.00686   2.05597
   R10        2.82363  -0.00467   0.00000  -0.01448  -0.01447   2.80916
   R11        2.38892   0.00660   0.00000   0.00843   0.00843   2.39735
   R12        2.38892   0.00660   0.00000   0.00843   0.00843   2.39735
    A1        2.10201   0.00024   0.00000   0.00221   0.00220   2.10422
    A2        2.09698  -0.00032   0.00000  -0.00235  -0.00234   2.09464
    A3        2.08419   0.00008   0.00000   0.00014   0.00014   2.08433
    A4        2.13382  -0.00202   0.00000  -0.00885  -0.00885   2.12497
    A5        2.10896   0.00115   0.00000   0.00527   0.00527   2.11423
    A6        2.04040   0.00088   0.00000   0.00358   0.00358   2.04398
    A7        2.10201   0.00024   0.00000   0.00221   0.00220   2.10422
    A8        2.08419   0.00008   0.00000   0.00014   0.00014   2.08433
    A9        2.09698  -0.00032   0.00000  -0.00235  -0.00234   2.09464
   A10        2.13382  -0.00202   0.00000  -0.00885  -0.00885   2.12497
   A11        2.10896   0.00115   0.00000   0.00527   0.00527   2.11423
   A12        2.04040   0.00088   0.00000   0.00358   0.00358   2.04398
   A13        2.04735   0.00178   0.00000   0.00664   0.00665   2.05399
   A14        2.12558   0.00364   0.00000   0.01474   0.01474   2.14031
   A15        2.11026  -0.00542   0.00000  -0.02138  -0.02138   2.08888
   A16        2.04735   0.00178   0.00000   0.00664   0.00665   2.05399
   A17        2.12558   0.00364   0.00000   0.01474   0.01474   2.14031
   A18        2.11026  -0.00542   0.00000  -0.02138  -0.02138   2.08888
    D1        0.00000   0.00000   0.00000   0.00000   0.00000   0.00000
    D2        3.14159   0.00000   0.00000   0.00000   0.00000   3.14159
    D3        3.14159   0.00000   0.00000   0.00000   0.00000   3.14159
    D4        0.00000   0.00000   0.00000   0.00000   0.00000   0.00000
    D5        0.00000   0.00000   0.00000   0.00000   0.00000   0.00000
    D6        3.14159   0.00000   0.00000   0.00000   0.00000   3.14159
    D7        3.14159   0.00000   0.00000   0.00000   0.00000   3.14159
    D8        0.00000   0.00000   0.00000   0.00000   0.00000   0.00000
    D9        0.00000   0.00000   0.00000   0.00000   0.00000   0.00000
   D10        3.14159   0.00000   0.00000   0.00000   0.00000   3.14159
   D11        3.14159   0.00000   0.00000   0.00000   0.00000   3.14159
   D12        0.00000   0.00000   0.00000   0.00000   0.00000   0.00000
   D13        0.00000   0.00000   0.00000   0.00000   0.00000   0.00000
   D14        3.14159   0.00000   0.00000   0.00000   0.00000   3.14159
   D15        3.14159   0.00000   0.00000   0.00000   0.00000   3.14159
   D16        0.00000   0.00000   0.00000   0.00000   0.00000   0.00000
   D17        0.00000   0.00000   0.00000   0.00000   0.00000   0.00000
   D18        3.14159   0.00000   0.00000   0.00000   0.00000   3.14159
   D19        3.14159   0.00000   0.00000   0.00000   0.00000   3.14159
   D20        0.00000   0.00000   0.00000   0.00000   0.00000   0.00000
   D21        0.00000   0.00000   0.00000   0.00000   0.00000   0.00000
   D22        3.14159   0.00000   0.00000   0.00000   0.00000   3.14159
   D23        3.14159   0.00000   0.00000   0.00000   0.00000   3.14159
   D24        0.00000   0.00000   0.00000   0.00000   0.00000   0.00000
         Item               Value     Threshold  Converged?
 Maximum Force            0.006600     0.000015     NO 
 RMS     Force            0.002138     0.000010     NO 
 Maximum Displacement     0.047169     0.000060     NO 
 RMS     Displacement     0.010977     0.000040     NO 
 Predicted change in Energy=-3.444878D-04
 Lowest energy point so far.  Saving SCF results.
 GradGradGradGradGradGradGradGradGradGradGradGradGradGradGradGradGradGrad

 Leave Link  103 at Wed Apr  9 18:02:47 2025, MaxMem=  8053063680 cpu:              12.8 elap:               0.4
 (Enter /export/g16/l202.exe)
                          Input orientation:                          
 ---------------------------------------------------------------------
 Center     Atomic      Atomic             Coordinates (Angstroms)
 Number     Number       Type             X           Y           Z
 ---------------------------------------------------------------------
      1          6           0        1.803444    0.713809    0.000000
      2          6           0        0.621942    1.411511    0.000000
      3          6           0        1.803444   -0.713809    0.000000
      4          6           0        0.621942   -1.411511    0.000000
      5          6           0       -0.651666   -0.743271    0.000000
      6          6           0       -0.651666    0.743271    0.000000
      7          1           0        2.749919   -1.247627    0.000000
      8          8           0       -1.753809    1.371509    0.000000
      9          1           0        2.749919    1.247627    0.000000
     10          1           0        0.611051    2.499431    0.000000
     11          1           0        0.611051   -2.499431    0.000000
     12          8           0       -1.753809   -1.371509    0.000000
 ---------------------------------------------------------------------
                    Distance matrix (angstroms):
                    1          2          3          4          5
     1  C    0.000000
     2  C    1.372128   0.000000
     3  C    1.427618   2.431652   0.000000
     4  C    2.431652   2.823023   1.372128   0.000000
     5  C    2.854933   2.503031   2.455287   1.438271   0.000000
     6  C    2.455287   1.438271   2.854933   2.503031   1.486541
     7  H    2.177853   3.405774   1.086636   2.134278   3.438772
     8  O    3.617543   2.376088   4.123421   3.659153   2.384746
     9  H    1.086636   2.134278   2.177853   3.405774   3.941377
    10  H    2.147149   1.087974   3.427347   3.910958   3.479881
    11  H    3.427347   3.910958   2.147149   1.087974   2.162997
    12  O    4.123421   3.659153   3.617543   2.376088   1.268622
                    6          7          8          9         10
     6  C    0.000000
     7  H    3.941377   0.000000
     8  O    1.268622   5.209936   0.000000
     9  H    3.438772   2.495254   4.505431   0.000000
    10  H    2.162997   4.314533   2.620071   2.478259   0.000000
    11  H    3.479881   2.478259   4.536159   4.314533   4.998862
    12  O    2.384746   4.505431   2.743019   5.209936   4.536159
                   11         12
    11  H    0.000000
    12  O    2.620071   0.000000
 Stoichiometry    C6H4O2(1-,2)
 Framework group  C2V[SGV(C6H4O2)]
 Deg. of freedom    11
 Full point group                 C2V     NOp   4
 RotChk:  IX=0 Diff= 7.22D-16
 Largest Abelian subgroup         C2V     NOp   4
 Largest concise Abelian subgroup C2      NOp   2
                         Standard orientation:                         
 ---------------------------------------------------------------------
 Center     Atomic      Atomic             Coordinates (Angstroms)
 Number     Number       Type             X           Y           Z
 ---------------------------------------------------------------------
      1          6           0        0.000000    0.713809    1.804414
      2          6           0        0.000000    1.411511    0.622913
      3          6           0        0.000000   -0.713809    1.804414
      4          6           0        0.000000   -1.411511    0.622913
      5          6           0        0.000000   -0.743271   -0.650695
      6          6           0        0.000000    0.743271   -0.650695
      7          1           0        0.000000   -1.247627    2.750889
      8          8           0        0.000000    1.371509   -1.752838
      9          1           0        0.000000    1.247627    2.750889
     10          1           0        0.000000    2.499431    0.612022
     11          1           0        0.000000   -2.499431    0.612022
     12          8           0        0.000000   -1.371509   -1.752838
 ---------------------------------------------------------------------
 Rotational constants (GHZ):           3.3870820           2.3894859           1.4010715
 Leave Link  202 at Wed Apr  9 18:02:47 2025, MaxMem=  8053063680 cpu:               8.1 elap:               0.2
 (Enter /export/g16/l301.exe)
 Standard basis: 6-31+G(d) (6D, 7F)
 Ernie: Thresh=  0.10000D-02 Tol=  0.10000D-05 Strict=F.
 There are    60 symmetry adapted cartesian basis functions of A1  symmetry.
 There are    20 symmetry adapted cartesian basis functions of A2  symmetry.
 There are    20 symmetry adapted cartesian basis functions of B1  symmetry.
 There are    60 symmetry adapted cartesian basis functions of B2  symmetry.
 There are    60 symmetry adapted basis functions of A1  symmetry.
 There are    20 symmetry adapted basis functions of A2  symmetry.
 There are    20 symmetry adapted basis functions of B1  symmetry.
 There are    60 symmetry adapted basis functions of B2  symmetry.
   160 basis functions,   272 primitive gaussians,   160 cartesian basis functions
    29 alpha electrons       28 beta electrons
       nuclear repulsion energy       325.9209313202 Hartrees.
 IExCor= 4336 DFT=T Ex+Corr=M062X ExCW=0 ScaHFX=  0.540000
 ScaDFX=  1.000000  1.000000  1.000000  1.000000 ScalE2=  1.000000  1.000000
 IRadAn=      5 IRanWt=     -1 IRanGd=            0 ICorTp=0 IEmpDi=  4
 NAtoms=   12 NActive=   12 NUniq=    6 SFac= 4.00D+00 NAtFMM=   60 NAOKFM=F Big=F
 Integral buffers will be    131072 words long.
 Raffenetti 2 integral format.
 Two-electron integral symmetry is turned on.
 ------------------------------------------------------------------------------
 Polarizable Continuum Model (PCM)
 =================================
 Model                : PCM.
 Atomic radii         : SMD-Coulomb.
 Polarization charges : Total charges.
 Charge compensation  : None.
 Solution method      : On-the-fly selection.
 Cavity type          : VdW (van der Waals Surface) (Alpha=1.000).
 Cavity algorithm     : GePol (No added spheres)
                        Default sphere list used, NSphG=   12.
                        Lebedev-Laikov grids with approx.  5.0 points / Ang**2.
                        Smoothing algorithm: York/Karplus (Gamma=1.0000).
                        Polarization charges: spherical gaussians, with
                                              point-specific exponents (IZeta= 3).
                        Self-potential: point-specific (ISelfS= 7).
                        Self-field    : sphere-specific E.n sum rule (ISelfD= 2).
 1st derivatives      : Analytical E(r).r(x)/FMM algorithm (CHGder, D1EAlg=3).
                        Cavity 1st derivative terms included.
 Solvent              : Water, Eps=  78.355300 Eps(inf)=   1.777849
 ------------------------------------------------------------------------------
 Spheres list:
 ISph  on   Nord     Re0    Alpha      Xe            Ye            Ze
    1   C      1    1.8500  1.000      0.000000      0.713809      1.804414
    2   C      2    1.8500  1.000      0.000000      1.411511      0.622913
    3   C      3    1.8500  1.000      0.000000     -0.713809      1.804414
    4   C      4    1.8500  1.000      0.000000     -1.411511      0.622913
    5   C      5    1.8500  1.000      0.000000     -0.743271     -0.650695
    6   C      6    1.8500  1.000      0.000000      0.743271     -0.650695
    7   H      7    1.2000  1.000      0.000000     -1.247627      2.750889
    8   O      8    1.5200  1.000      0.000000      1.371509     -1.752838
    9   H      9    1.2000  1.000      0.000000      1.247627      2.750889
   10   H     10    1.2000  1.000      0.000000      2.499431      0.612022
   11   H     11    1.2000  1.000      0.000000     -2.499431      0.612022
   12   O     12    1.5200  1.000      0.000000     -1.371509     -1.752838
 ------------------------------------------------------------------------------
 GePol: Number of generator spheres                  =      12
 GePol: Total number of spheres                      =      12
 GePol: Number of exposed spheres                    =      12 (100.00%)
 GePol: Number of points                             =    1070
 GePol: Average weight of points                     =       0.12
 GePol: Minimum weight of points                     =   0.53D-06
 GePol: Maximum weight of points                     =    0.21991
 GePol: Number of points with low weight             =      68
 GePol: Fraction of low-weight points (<1% of avg)   =       6.36%
 GePol: Cavity surface area                          =    125.242 Ang**2
 GePol: Cavity volume                                =    103.806 Ang**3
 ------------------------------------------------------------------------------
 Atomic radii for non-electrostatic terms: SMD-CDS.
 ------------------------------------------------------------------------------
 PCM non-electrostatic energy =         0.0066645732 Hartrees.
 Nuclear repulsion after PCM non-electrostatic terms =      325.9275958934 Hartrees.
 Leave Link  301 at Wed Apr  9 18:02:48 2025, MaxMem=  8053063680 cpu:               6.8 elap:               0.3
 (Enter /export/g16/l302.exe)
[...]
 
 Excited State   4:  2.084-A1     3.9632 eV  312.84 nm  f=0.0237  <S**2>=0.835
     29A -> 30A        0.90685
     29A -> 45A       -0.10661
     25B -> 29B        0.36016
     28B -> 36B        0.15455
 
 Excited State   5:  2.323-B2     4.2570 eV  291.25 nm  f=0.0535  <S**2>=1.100
     28A -> 30A       -0.33782
     29A -> 34A        0.82992
     24B -> 29B       -0.33021
     28B -> 33B        0.19874
 
 Excited State   6:  2.462-A1     4.6998 eV  263.81 nm  f=0.1900  <S**2>=1.265
     28A -> 34A       -0.45645
     29A -> 30A       -0.36197
     25B -> 29B        0.76162
     28B -> 36B        0.19994
 
 Excited State   7:  2.028-B1     4.7928 eV  258.69 nm  f=0.0002  <S**2>=0.778
     29A -> 31A        0.95840
     29A -> 32A       -0.17405
     29A -> 40A       -0.15928
 
 Excited State   8:  2.598-B2     4.9175 eV  252.13 nm  f=0.1228  <S**2>=1.437
     28A -> 30A        0.36567
     29A -> 34A        0.50451
     24B -> 29B        0.60580
     28B -> 33B       -0.41908
 
 Excited State   9:  2.039-B1     5.3605 eV  231.29 nm  f=0.0004  <S**2>=0.790
     29A -> 31A        0.17995
     29A -> 32A        0.96327
     29A -> 36A       -0.10881
 
 Excited State  10:  2.044-A2     5.4578 eV  227.17 nm  f=0.0000  <S**2>=0.794
     28A -> 31A        0.13584
     29A -> 33A        0.96396
     29A -> 35A       -0.18611
 SavETr:  write IOETrn=   770 NScale= 10 NData=  16 NLR=1 NState=   10 LETran=     190.
 Leave Link  914 at Wed Apr  9 18:07:50 2025, MaxMem=  8053063680 cpu:            3520.3 elap:              80.3
 (Enter /export/g16/l601.exe)
 Copying SCF densities to generalized density rwf, IOpCl= 1 IROHF=0.

 **********************************************************************

            Population analysis using the SCF density.

 **********************************************************************

 Orbital symmetries:
 Alpha Orbitals:
       Occupied  (B2) (A1) (A1) (B2) (A1) (B2) (B2) (A1) (A1) (B2)
                 (A1) (B2) (A1) (A1) (B2) (A1) (A1) (B2) (B1) (A1)
                 (B2) (B2) (A2) (A1) (B1) (B2) (A1) (A2) (B1)
       Virtual   (B1) (A1) (A1) (B2) (A2) (B2) (A1) (B1) (B2) (A2)
                 (A1) (B1) (A1) (A2) (B2) (B1) (A1) (B2) (A1) (A2)
                 (B2) (A1) (B2) (A1) (A1) (A2) (B2) (B2) (B1) (A1)
                 (B2) (B2) (A1) (B2) (A1) (A1) (B2) (A2) (A1) (B2)
                 (B2) (A1) (A1) (B2) (B2) (B2) (A1) (B1) (B2) (A1)
                 (B1) (A2) (B2) (B1) (A2) (A1) (A1) (A2) (B2) (B2)
                 (A1) (B2) (A1) (B2) (A1) (A1) (B2) (A1) (B2) (A1)
                 (B2) (B1) (B1) (B2) (A1) (A2) (B2) (B2) (A1) (B1)
                 (A1) (A2) (B1) (B2) (B1) (A2) (A1) (B2) (A1) (A2)
                 (A1) (B1) (B2) (A2) (A1) (A1) (A1) (B2) (B2) (A1)
                 (B1) (B2) (A1) (B2) (A2) (A2) (B1) (B2) (A1) (B1)
                 (B2) (A1) (A2) (A2) (B2) (A1) (B2) (A1) (B2) (A1)
                 (B2) (B2) (B2) (A1) (A1) (B2) (A1) (B2) (A1) (B2)
                 (B2)
 Beta  Orbitals:
       Occupied  (B2) (A1) (A1) (B2) (A1) (B2) (B2) (A1) (A1) (B2)
                 (A1) (B2) (A1) (A1) (B2) (A1) (A1) (B2) (A1) (B2)
                 (B1) (B2) (A1) (A2) (B1) (B2) (A1) (A2)
       Virtual   (B1) (A1) (A1) (B2) (B1) (B2) (A1) (A2) (B1) (B2)
                 (A1) (B1) (A2) (A1) (A2) (B2) (B1) (A1) (B2) (A1)
                 (A2) (B2) (A1) (B2) (A1) (A1) (A2) (B2) (B2) (B1)
                 (A1) (B2) (A1) (B2) (B2) (A1) (A1) (B2) (A2) (A1)
                 (B2) (B2) (A1) (B2) (A1) (B2) (B2) (A1) (B1) (B2)
                 (A1) (B1) (A2) (B2) (B1) (A2) (A1) (A1) (A2) (B2)
                 (B2) (A1) (B2) (A1) (B2) (A1) (A1) (B2) (A1) (B2)
                 (A1) (B2) (B1) (B1) (B2) (A1) (A2) (B2) (B2) (A1)
                 (B1) (A1) (B2) (B1) (A2) (B1) (A2) (A1) (B2) (A1)
                 (A2) (A1) (B1) (B2) (A2) (A1) (A1) (A1) (B2) (B2)
                 (A1) (B1) (B2) (A1) (B2) (A2) (A2) (B1) (B2) (A1)
                 (B1) (B2) (A1) (A2) (A2) (B2) (A1) (B2) (A1) (B2)
                 (A1) (B2) (B2) (B2) (A1) (A1) (B2) (A1) (B2) (A1)
                 (B2) (B2)
 The electronic state is 2-B1.
 Alpha  occ. eigenvalues --  -19.61694 -19.61694 -10.60687 -10.60640 -10.55302
 Alpha  occ. eigenvalues --  -10.55238 -10.54197 -10.54196  -1.14364  -1.11257
 Alpha  occ. eigenvalues --   -0.93495  -0.82925  -0.79211  -0.67780  -0.65551
 Alpha  occ. eigenvalues --   -0.56786  -0.54535  -0.52680  -0.50020  -0.48996
 Alpha  occ. eigenvalues --   -0.48405  -0.43737  -0.43266  -0.42106  -0.39407
 Alpha  occ. eigenvalues --   -0.34686  -0.30943  -0.28974  -0.22592
 Alpha virt. eigenvalues --    0.03383   0.03417   0.04192   0.04608   0.04621
 Alpha virt. eigenvalues --    0.06203   0.06583   0.07952   0.09102   0.10253
 Alpha virt. eigenvalues --    0.10408   0.10480   0.11565   0.13783   0.15116
 Alpha virt. eigenvalues --    0.15311   0.15478   0.16436   0.16737   0.16826
 Alpha virt. eigenvalues --    0.19673   0.19963   0.21570   0.22464   0.23273
 Alpha virt. eigenvalues --    0.23556   0.25251   0.25931   0.26934   0.27727
 Alpha virt. eigenvalues --    0.28921   0.30857   0.31188   0.32060   0.32430
 Alpha virt. eigenvalues --    0.34737   0.35246   0.35670   0.38315   0.38962
 Alpha virt. eigenvalues --    0.42643   0.44205   0.47154   0.47293   0.52985
 Alpha virt. eigenvalues --    0.64580   0.66958   0.68923   0.71086   0.73017
 Alpha virt. eigenvalues --    0.75855   0.76592   0.77536   0.79594   0.80355
 Alpha virt. eigenvalues --    0.83140   0.86939   0.87915   0.93185   0.97152
 Alpha virt. eigenvalues --    0.98812   1.01437   1.02011   1.07199   1.08911
 Alpha virt. eigenvalues --    1.09977   1.10630   1.15054   1.16490   1.22112
 Alpha virt. eigenvalues --    1.22901   1.28092   1.29080   1.33320   1.35301
 Alpha virt. eigenvalues --    1.35682   1.38879   1.41061   1.41747   1.44117
 Alpha virt. eigenvalues --    1.48214   1.50626   1.50893   1.51000   1.52736
 Alpha virt. eigenvalues --    1.55228   1.65127   1.77148   1.77154   1.81405
 Alpha virt. eigenvalues --    1.87385   1.88775   1.89860   1.95482   1.97665
 Alpha virt. eigenvalues --    2.00250   2.04552   2.06119   2.08659   2.11918
 Alpha virt. eigenvalues --    2.12848   2.15392   2.18658   2.19268   2.26838
 Alpha virt. eigenvalues --    2.32057   2.34601   2.36660   2.41257   2.51702
 Alpha virt. eigenvalues --    2.61073   2.64215   2.64565   2.70388   2.72735
 Alpha virt. eigenvalues --    2.76411   2.87420   2.88014   2.92600   3.12844
 Alpha virt. eigenvalues --    3.21251   3.26143   3.40681   4.12706   4.25731
 Alpha virt. eigenvalues --    4.28394   4.32884   4.40758   4.47138   4.59987
 Alpha virt. eigenvalues --    5.10595
  Beta  occ. eigenvalues --  -19.61178 -19.61177 -10.60624 -10.60581 -10.55235
  Beta  occ. eigenvalues --  -10.55175 -10.54189 -10.54187  -1.13059  -1.09808
  Beta  occ. eigenvalues --   -0.92977  -0.82686  -0.78133  -0.67371  -0.65046
  Beta  occ. eigenvalues --   -0.56234  -0.54115  -0.52027  -0.48182  -0.48106
  Beta  occ. eigenvalues --   -0.47067  -0.43350  -0.41790  -0.39361  -0.36738
  Beta  occ. eigenvalues --   -0.33821  -0.30249  -0.27240
  Beta virt. eigenvalues --   -0.07272   0.03334   0.04152   0.04742   0.05438
  Beta virt. eigenvalues --    0.06290   0.06620   0.07082   0.07326   0.09141
  Beta virt. eigenvalues --    0.09868   0.10222   0.10314   0.11647   0.14113
  Beta virt. eigenvalues --    0.15216   0.15409   0.15445   0.16159   0.16212
  Beta virt. eigenvalues --    0.17304   0.19712   0.20019   0.21562   0.22364
  Beta virt. eigenvalues --    0.23342   0.24492   0.25275   0.25931   0.27130
  Beta virt. eigenvalues --    0.27913   0.29075   0.30843   0.30983   0.32395
  Beta virt. eigenvalues --    0.32687   0.34800   0.35308   0.35939   0.38779
  Beta virt. eigenvalues --    0.39084   0.43063   0.44618   0.47347   0.47725
  Beta virt. eigenvalues --    0.53541   0.65223   0.67211   0.69934   0.71699
  Beta virt. eigenvalues --    0.73740   0.76791   0.77058   0.78006   0.80105
  Beta virt. eigenvalues --    0.81059   0.83445   0.87313   0.88269   0.93564
  Beta virt. eigenvalues --    0.97399   0.98983   1.01680   1.02326   1.07606
  Beta virt. eigenvalues --    1.09611   1.10880   1.11293   1.15243   1.16619
  Beta virt. eigenvalues --    1.22542   1.23369   1.30171   1.30973   1.33615
  Beta virt. eigenvalues --    1.35705   1.38031   1.39354   1.41394   1.42114
  Beta virt. eigenvalues --    1.45558   1.48663   1.51338   1.51970   1.51985
  Beta virt. eigenvalues --    1.54265   1.55763   1.65532   1.77529   1.77659
  Beta virt. eigenvalues --    1.82429   1.88065   1.89852   1.90551   1.96530
  Beta virt. eigenvalues --    1.98529   2.00773   2.05161   2.06654   2.09272
  Beta virt. eigenvalues --    2.13145   2.13904   2.16017   2.19356   2.20074
  Beta virt. eigenvalues --    2.27918   2.33520   2.35536   2.37606   2.41955
  Beta virt. eigenvalues --    2.53056   2.61956   2.64831   2.65850   2.71792
  Beta virt. eigenvalues --    2.74195   2.77874   2.88715   2.88891   2.93254
  Beta virt. eigenvalues --    3.13314   3.22112   3.28196   3.41859   4.13283
  Beta virt. eigenvalues --    4.26638   4.29018   4.33732   4.41769   4.48041
  Beta virt. eigenvalues --    4.60717   5.11276
          Condensed to atoms (all electrons):
               1          2          3          4          5          6
     1  C    5.208205   0.432089   0.502608  -0.268192   0.041418   0.054855
     2  C    0.432089   6.427501  -0.268192   0.300605  -0.898160   0.102405
     3  C    0.502608  -0.268192   5.208205   0.432089   0.054855   0.041418
     4  C   -0.268192   0.300605   0.432089   6.427501   0.102405  -0.898160
     5  C    0.041418  -0.898160   0.054855   0.102405   6.745628  -0.540901
     6  C    0.054855   0.102405   0.041418  -0.898160  -0.540901   6.745628
     7  H    0.000044   0.018530   0.329651  -0.023888   0.004829  -0.016270
     8  O    0.006793  -0.165860  -0.022068  -0.007643  -0.274524   0.478592
     9  H    0.329651  -0.023888   0.000044   0.018530  -0.016270   0.004829
    10  H   -0.005360   0.369988   0.021796  -0.019788   0.012418  -0.069358
    11  H    0.021796  -0.019788  -0.005360   0.369988  -0.069358   0.012418
    12  O   -0.022068  -0.007643   0.006793  -0.165860   0.478592  -0.274524
               7          8          9         10         11         12
     1  C    0.000044   0.006793   0.329651  -0.005360   0.021796  -0.022068
     2  C    0.018530  -0.165860  -0.023888   0.369988  -0.019788  -0.007643
     3  C    0.329651  -0.022068   0.000044   0.021796  -0.005360   0.006793
     4  C   -0.023888  -0.007643   0.018530  -0.019788   0.369988  -0.165860
     5  C    0.004829  -0.274524  -0.016270   0.012418  -0.069358   0.478592
     6  C   -0.016270   0.478592   0.004829  -0.069358   0.012418  -0.274524
     7  H    0.452183   0.000100  -0.003019  -0.000116  -0.003125  -0.000719
     8  O    0.000100   8.744231  -0.000719  -0.000030  -0.000486   0.010957
     9  H   -0.003019  -0.000719   0.452183  -0.003125  -0.000116   0.000100
    10  H   -0.000116  -0.000030  -0.003125   0.456152   0.000008  -0.000486
    11  H   -0.003125  -0.000486  -0.000116   0.000008   0.456152  -0.000030
    12  O   -0.000719   0.010957   0.000100  -0.000486  -0.000030   8.744231
          Atomic-Atomic Spin Densities.
               1          2          3          4          5          6
     1  C    0.143793  -0.065834   0.072566  -0.011094  -0.000836  -0.026771
     2  C   -0.065834   0.041326  -0.011094  -0.012772   0.002960   0.091702
     3  C    0.072566  -0.011094   0.143793  -0.065834  -0.026771  -0.000836
     4  C   -0.011094  -0.012772  -0.065834   0.041326   0.091702   0.002960
     5  C   -0.000836   0.002960  -0.026771   0.091702   0.099594   0.100940
     6  C   -0.026771   0.091702  -0.000836   0.002960   0.100940   0.099594
     7  H    0.003335  -0.001075  -0.003700   0.000867  -0.001306   0.000977
     8  O    0.003099  -0.023765   0.000577  -0.003868  -0.003977  -0.120806
     9  H   -0.003700   0.000867   0.003335  -0.001075   0.000977  -0.001306
    10  H   -0.000519   0.000401   0.000648  -0.000248   0.000761  -0.001041
    11  H    0.000648  -0.000248  -0.000519   0.000401  -0.001041   0.000761
    12  O    0.000577  -0.003868   0.003099  -0.023765  -0.120806  -0.003977
               7          8          9         10         11         12
     1  C    0.003335   0.003099  -0.003700  -0.000519   0.000648   0.000577
     2  C   -0.001075  -0.023765   0.000867   0.000401  -0.000248  -0.003868
     3  C   -0.003700   0.000577   0.003335   0.000648  -0.000519   0.003099
     4  C    0.000867  -0.003868  -0.001075  -0.000248   0.000401  -0.023765
     5  C   -0.001306  -0.003977   0.000977   0.000761  -0.001041  -0.120806
     6  C    0.000977  -0.120806  -0.001306  -0.001041   0.000761  -0.003977
     7  H   -0.005813  -0.000002  -0.000039   0.000001  -0.000033   0.000015
     8  O   -0.000002   0.369666   0.000015  -0.000053  -0.000006   0.012829
     9  H   -0.000039   0.000015  -0.005813  -0.000033   0.000001  -0.000002
    10  H    0.000001  -0.000053  -0.000033  -0.002909   0.000000  -0.000006
    11  H   -0.000033  -0.000006   0.000001   0.000000  -0.002909  -0.000053
    12  O    0.000015   0.012829  -0.000002  -0.000006  -0.000053   0.369666
 Mulliken charges and spin densities:
               1          2
     1  C   -0.301839   0.115263
     2  C   -0.267587   0.018600
     3  C   -0.301839   0.115263
     4  C   -0.267587   0.018600
     5  C    0.359068   0.142198
     6  C    0.359068   0.142198
     7  H    0.241800  -0.006772
     8  O   -0.769343   0.233708
     9  H    0.241800  -0.006772
    10  H    0.237901  -0.002997
    11  H    0.237901  -0.002997
    12  O   -0.769343   0.233708
 Sum of Mulliken charges =  -1.00000   1.00000
 Mulliken charges and spin densities with hydrogens summed into heavy atoms:
               1          2
     1  C   -0.060039   0.108491
     2  C   -0.029686   0.015604
     3  C   -0.060039   0.108491
     4  C   -0.029686   0.015604
     5  C    0.359068   0.142198
     6  C    0.359068   0.142198
     8  O   -0.769343   0.233708
    12  O   -0.769343   0.233708
 Electronic spatial extent (au):  <R**2>=            828.6328
 Charge=             -1.0000 electrons
 Dipole moment (field-independent basis, Debye):
    X=              0.0000    Y=              0.0000    Z=             10.7214  Tot=             10.7214
 Quadrupole moment (field-independent basis, Debye-Ang):
   XX=            -50.6281   YY=            -56.3638   ZZ=            -65.1470
   XY=              0.0000   XZ=              0.0000   YZ=              0.0000
 Traceless Quadrupole moment (field-independent basis, Debye-Ang):
   XX=              6.7515   YY=              1.0159   ZZ=             -7.7674
   XY=              0.0000   XZ=              0.0000   YZ=              0.0000
 Octapole moment (field-independent basis, Debye-Ang**2):
  XXX=              0.0000  YYY=              0.0000  ZZZ=             50.1775  XYY=              0.0000
  XXY=              0.0000  XXZ=             -6.1689  XZZ=              0.0000  YZZ=              0.0000
  YYZ=             26.5380  XYZ=              0.0000
 Hexadecapole moment (field-independent basis, Debye-Ang**3):
 XXXX=            -59.5735 YYYY=           -461.4446 ZZZZ=           -649.0187 XXXY=              0.0000
 XXXZ=              0.0000 YYYX=              0.0000 YYYZ=              0.0000 ZZZX=              0.0000
 ZZZY=              0.0000 XXYY=            -93.5169 XXZZ=           -120.2928 YYZZ=           -213.4321
 XXYZ=              0.0000 YYXZ=              0.0000 ZZXY=              0.0000
 N-N= 3.258869505543D+02 E-N=-1.553240348325D+03  KE= 3.782194294346D+02
 Symmetry A1   KE= 1.848844888353D+02
 Symmetry A2   KE= 6.190425778741D+00
 Symmetry B1   KE= 6.655048657644D+00
 Symmetry B2   KE= 1.804894661629D+02
 Symmetry A1   SP=-6.426057170717D-15
 Symmetry A2   SP=-8.142265141742D-16
 Symmetry B1   SP= 1.000000000000D+00
 Symmetry B2   SP= 6.595521570167D-16
 Leave Link  601 at Wed Apr  9 18:07:51 2025, MaxMem=  8053063680 cpu:              25.1 elap:               0.7
 (Enter /export/g16/l9999.exe)
 Electronic transition elements 
                 1             2             3             4             5 
      1  -0.381398D+03 -0.381392D+03 -0.381370D+03 -0.381327D+03 -0.381316D+03
      2   0.000000D+00  0.000000D+00  0.000000D+00  0.493991D+00  0.000000D+00
      3   0.000000D+00  0.703706D+00  0.000000D+00  0.000000D+00 -0.716405D+00
      4   0.140906D-01  0.000000D+00  0.000000D+00  0.000000D+00  0.000000D+00
      5   0.000000D+00  0.000000D+00  0.000000D+00 -0.830072D-01  0.000000D+00
      6   0.000000D+00 -0.698030D-01  0.000000D+00  0.000000D+00  0.112608D+00
      7   0.385688D-02  0.000000D+00  0.000000D+00  0.000000D+00  0.000000D+00
      8   0.000000D+00  0.000000D+00 -0.663156D+00  0.000000D+00  0.000000D+00
      9  -0.282230D+00  0.000000D+00  0.000000D+00  0.000000D+00  0.000000D+00
     10   0.000000D+00 -0.752748D+00  0.000000D+00  0.000000D+00  0.491130D+00
     11   0.000000D+00  0.000000D+00  0.000000D+00  0.250129D-02  0.000000D+00
     12   0.000000D+00  0.000000D+00  0.000000D+00 -0.118586D+00  0.000000D+00
     13   0.000000D+00  0.000000D+00  0.000000D+00 -0.415603D-01  0.000000D+00
     14   0.000000D+00  0.183423D+00  0.000000D+00  0.000000D+00  0.797168D-01
     15   0.145630D-01  0.000000D+00  0.000000D+00  0.000000D+00  0.000000D+00
     16   0.000000D+00  0.000000D+00 -0.288965D-01  0.000000D+00  0.000000D+00
                 6             7             8             9            10 
      1  -0.381300D+03 -0.381297D+03 -0.381292D+03 -0.381276D+03 -0.381272D+03
      2  -0.128470D+01  0.000000D+00  0.000000D+00  0.000000D+00  0.000000D+00
      3   0.000000D+00  0.000000D+00 -0.100945D+01  0.000000D+00  0.000000D+00
      4   0.000000D+00 -0.434432D-01  0.000000D+00  0.538821D-01  0.000000D+00
      5   0.218618D+00  0.000000D+00  0.000000D+00  0.000000D+00  0.000000D+00
      6   0.000000D+00  0.000000D+00  0.185627D+00  0.000000D+00  0.000000D+00
      7   0.000000D+00 -0.366480D-02  0.000000D+00  0.480851D-02  0.000000D+00
      8   0.000000D+00  0.000000D+00  0.000000D+00  0.000000D+00  0.512137D-01
      9   0.000000D+00 -0.206155D+00  0.000000D+00  0.471904D+00  0.000000D+00
     10   0.000000D+00  0.000000D+00  0.316824D+00  0.000000D+00  0.000000D+00
     11   0.731752D-01  0.000000D+00  0.000000D+00  0.000000D+00  0.000000D+00
     12  -0.171301D+00  0.000000D+00  0.000000D+00  0.000000D+00  0.000000D+00
     13   0.553322D-01  0.000000D+00  0.000000D+00  0.000000D+00  0.000000D+00
     14   0.000000D+00  0.000000D+00 -0.409717D+00  0.000000D+00  0.000000D+00
     15   0.000000D+00  0.769179D-01  0.000000D+00 -0.323991D+00  0.000000D+00
     16   0.000000D+00  0.000000D+00  0.000000D+00  0.000000D+00  0.465145D-01
 1\1\GINC-C09\SP\UM062X TD-FC\6-31+G(d)\C6H4O2(1-,2)\TALIPOVM\09-Apr-20
 25\0\\#p M062X/6-31+G(d) td(nstates=10) int(grid=ultrafine) scf(xqc,fe
 rmi,maxcyc=200) scrf(check) guess(read) geom(allcheck)\\\-1,2\C,0,1.80
 10745865,0.7136736663,0.\C,0,0.6211940587,1.4139635314,0.\C,0,1.801074
 5865,-0.7136736663,0.\C,0,0.6211940587,-1.4139635314,0.\C,0,-0.6497257
 193,-0.743498362,0.\C,0,-0.6497257193,0.743498362,0.\H,0,2.7491927742,
 -1.2443118287,0.\O,0,-1.7529002657,1.3739352444,0.\H,0,2.7491927742,1.
 2443118287,0.\H,0,0.6120445656,2.5015159274,0.\H,0,0.6120445656,-2.501
 5159274,0.\O,0,-1.7529002657,-1.3739352444,0.\\Version=ES64L-G16RevA.0
 3\State=2-B1\HF=-381.4727514\S2=0.767663\S2-1=0.\S2A=0.750169\RMSD=6.2
 24e-09\PG=C02V [SGV(C6H4O2)]\\@


 ANYONE WHO IS NOT SHOCKED BY QUANTUM THEORY HAS
 NOT UNDERSTOOD IT. -- NIELS BOHR(1885-1962)
 Job cpu time:       0 days  1 hours  4 minutes 43.1 seconds.
 Elapsed time:       0 days  0 hours  1 minutes 30.1 seconds.
 File lengths (MBytes):  RWF=    289 Int=      0 D2E=      0 Chk=     20 Scr=      1
 Normal termination of Gaussian 16 at Wed Apr  9 18:07:52 2025.
