 Entering Gaussian System, Link 0=/export/g16/g16
 Input=SQ.com
 Output=SQ.log
 AtFile(1): SQ.xyz
            C         -1.89625        0.59018       -0.00001
            C         -0.78303        1.38616       -0.00001
            C         -1.77575       -0.82626        0.00001
            C         -0.53340       -1.45070        0.00001
            C          0.60914       -0.66368        0.00001
            C          0.52985        0.79494        0.00001
            H          2.46771       -0.46377       -0.00003
            O          1.60482        1.44583        0.00002
            H         -2.88296        1.03353       -0.00002
            H         -0.84942        2.46584       -0.00002
            H         -0.44607       -2.52862        0.00002
            O          1.83012       -1.20328       -0.00002
            H         -2.67225       -1.43134        0.00001
 Initial command:
 /export/g16/l1.exe "/tmp/talipovm/21607/Gau-2483073.inp" -scrdir="/tmp/talipovm/21607/"
 Entering Link 1 = /export/g16/l1.exe PID=   2483076.
  
 Copyright (c) 1988,1990,1992,1993,1995,1998,2003,2009,2016,
            Gaussian, Inc.  All Rights Reserved.
  
 This is part of the Gaussian(R) 16 program.  It is based on
 the Gaussian(R) 09 system (copyright 2009, Gaussian, Inc.),
 the Gaussian(R) 03 system (copyright 2003, Gaussian, Inc.),
 the Gaussian(R) 98 system (copyright 1998, Gaussian, Inc.),
 the Gaussian(R) 94 system (copyright 1995, Gaussian, Inc.),
 the Gaussian 92(TM) system (copyright 1992, Gaussian, Inc.),
 the Gaussian 90(TM) system (copyright 1990, Gaussian, Inc.),
 the Gaussian 88(TM) system (copyright 1988, Gaussian, Inc.),
 the Gaussian 86(TM) system (copyright 1986, Carnegie Mellon
 University), and the Gaussian 82(TM) system (copyright 1983,
 Carnegie Mellon University). Gaussian is a federally registered
 trademark of Gaussian, Inc.
  
 This software contains proprietary and confidential information,
 including trade secrets, belonging to Gaussian, Inc.
  
 This software is provided under written license and may be
 used, copied, transmitted, or stored only in accord with that
 written license.
  
 The following legend is applicable only to US Government
 contracts under FAR:
  
                    RESTRICTED RIGHTS LEGEND
  
 Use, reproduction and disclosure by the US Government is
 subject to restrictions as set forth in subparagraphs (a)
 and (c) of the Commercial Computer Software - Restricted
 Rights clause in FAR 52.227-19.
  
 Gaussian, Inc.
 340 Quinnipiac St., Bldg. 40, Wallingford CT 06492
  
  
 ---------------------------------------------------------------
 Warning -- This program may not be used in any manner that
 competes with the business of Gaussian, Inc. or will provide
 assistance to any competitor of Gaussian, Inc.  The licensee
 of this program is prohibited from giving any competitor of
 Gaussian, Inc. access to this program.  By using this program,
 the user acknowledges that Gaussian, Inc. is engaged in the
 business of creating and licensing software in the field of
 computational chemistry and represents and warrants to the
 licensee that it is not a competitor of Gaussian, Inc. and that
 it will not use this program in any manner prohibited above.
 ---------------------------------------------------------------
  

 Cite this work as:
 Gaussian 16, Revision A.03,
 M. J. Frisch, G. W. Trucks, H. B. Schlegel, G. E. Scuseria, 
 M. A. Robb, J. R. Cheeseman, G. Scalmani, V. Barone, 
 G. A. Petersson, H. Nakatsuji, X. Li, M. Caricato, A. V. Marenich, 
 J. Bloino, B. G. Janesko, R. Gomperts, B. Mennucci, H. P. Hratchian, 
 J. V. Ortiz, A. F. Izmaylov, J. L. Sonnenberg, D. Williams-Young, 
 F. Ding, F. Lipparini, F. Egidi, J. Goings, B. Peng, A. Petrone, 
 T. Henderson, D. Ranasinghe, V. G. Zakrzewski, J. Gao, N. Rega, 
 G. Zheng, W. Liang, M. Hada, M. Ehara, K. Toyota, R. Fukuda, 
 J. Hasegawa, M. Ishida, T. Nakajima, Y. Honda, O. Kitao, H. Nakai, 
 T. Vreven, K. Throssell, J. A. Montgomery, Jr., J. E. Peralta, 
 F. Ogliaro, M. J. Bearpark, J. J. Heyd, E. N. Brothers, K. N. Kudin, 
 V. N. Staroverov, T. A. Keith, R. Kobayashi, J. Normand, 
 K. Raghavachari, A. P. Rendell, J. C. Burant, S. S. Iyengar, 
 J. Tomasi, M. Cossi, J. M. Millam, M. Klene, C. Adamo, R. Cammi, 
 J. W. Ochterski, R. L. Martin, K. Morokuma, O. Farkas, 
 J. B. Foresman, and D. J. Fox, Gaussian, Inc., Wallingford CT, 2016.
 
 ******************************************
 Gaussian 16:  ES64L-G16RevA.03 25-Dec-2016
                 9-Apr-2025 
 ******************************************
 %nproc=44
 Will use up to   44 processors via shared memory.
 %mem=60Gb
 %chk=SQ.chk
 ----------------------------------------------------------------------
 #p M062X/6-31+G(d) opt(tight) int(grid=ultrafine) scf(xqc,fermi,maxcyc
 =200) scrf(smd,solvent=water)
 ----------------------------------------------------------------------
 1/7=10,18=20,19=15,26=6,38=1/1,3;
 2/9=110,12=2,17=6,18=5,40=1/2;
 3/5=1,6=6,7=11,11=2,25=1,30=1,70=32201,71=1,72=1,74=-55,75=-5/1,2,3;
 4//1;
 5/5=2,7=200,8=3,13=1,22=13,38=5,53=1/2,8;
 6/7=2,8=2,9=2,10=2,28=1/1;
 7//1,2,3,16;
 1/7=10,18=20,19=15,26=6/3(2);
 2/9=110/2;
 99//99;
 2/9=110/2;
 3/5=1,6=6,7=11,11=2,25=1,30=1,70=32205,71=1,72=1,74=-55,75=-5/1,2,3;
 4/5=5,16=3,69=1/1;
 5/5=2,7=200,8=3,13=1,22=13,38=5,53=1/2,8;
 7//1,2,3,16;
 1/7=10,18=20,19=15,26=6/3(-5);
 2/9=110/2;
 6/7=2,8=2,9=2,10=2,19=2,28=1/1;
 99/9=1/99;
 Leave Link    1 at Wed Apr  9 18:02:25 2025, MaxMem=  8053063680 cpu:              15.2 elap:               0.4
 (Enter /export/g16/l101.exe)


 Symbolic Z-matrix:
 Charge =  0 Multiplicity = 2
 C                    -1.89625   0.59018  -0.00001 
 C                    -0.78303   1.38616  -0.00001 
 C                    -1.77575  -0.82626   0.00001 
 C                    -0.5334   -1.4507    0.00001 
 C                     0.60914  -0.66368   0.00001 
 C                     0.52985   0.79494   0.00001 
 H                     2.46771  -0.46377  -0.00003 
 O                     1.60482   1.44583   0.00002 
 H                    -2.88296   1.03353  -0.00002 
 H                    -0.84942   2.46584  -0.00002 
 H                    -0.44607  -2.52862   0.00002 
 O                     1.83012  -1.20328  -0.00002 
 H                    -2.67225  -1.43134   0.00001 
 
 ITRead=  0  0  0  0  0  0  0  0  0  0  0  0  0
 MicOpt= -1 -1 -1 -1 -1 -1 -1 -1 -1 -1 -1 -1 -1
 NAtoms=     13 NQM=       13 NQMF=       0 NMMI=      0 NMMIF=      0
                NMic=       0 NMicF=      0.
                    Isotopes and Nuclear Properties:
 (Nuclear quadrupole moments (NQMom) in fm**2, nuclear magnetic moments (NMagM)
  in nuclear magnetons)

  Atom         1           2           3           4           5           6           7           8           9          10
 IAtWgt=          12          12          12          12          12          12           1          16           1           1
 AtmWgt=  12.0000000  12.0000000  12.0000000  12.0000000  12.0000000  12.0000000   1.0078250  15.9949146   1.0078250   1.0078250
 NucSpn=           0           0           0           0           0           0           1           0           1           1
 AtZEff=   0.0000000   0.0000000   0.0000000   0.0000000   0.0000000   0.0000000   0.0000000   0.0000000   0.0000000   0.0000000
 NQMom=    0.0000000   0.0000000   0.0000000   0.0000000   0.0000000   0.0000000   0.0000000   0.0000000   0.0000000   0.0000000
 NMagM=    0.0000000   0.0000000   0.0000000   0.0000000   0.0000000   0.0000000   2.7928460   0.0000000   2.7928460   2.7928460
 AtZNuc=   6.0000000   6.0000000   6.0000000   6.0000000   6.0000000   6.0000000   1.0000000   8.0000000   1.0000000   1.0000000

  Atom        11          12          13
 IAtWgt=           1          16           1
 AtmWgt=   1.0078250  15.9949146   1.0078250
 NucSpn=           1           0           1
 AtZEff=   0.0000000   0.0000000   0.0000000
 NQMom=    0.0000000   0.0000000   0.0000000
 NMagM=    2.7928460   0.0000000   2.7928460
 AtZNuc=   1.0000000   8.0000000   1.0000000
 Leave Link  101 at Wed Apr  9 18:02:26 2025, MaxMem=  8053063680 cpu:              40.6 elap:               1.0
 (Enter /export/g16/l103.exe)

 GradGradGradGradGradGradGradGradGradGradGradGradGradGradGradGradGradGrad
 Berny optimization.
 Initialization pass.
                           ----------------------------
                           !    Initial Parameters    !
                           ! (Angstroms and Degrees)  !
 --------------------------                            --------------------------
 ! Name  Definition              Value          Derivative Info.                !
 --------------------------------------------------------------------------------
 ! R1    R(1,2)                  1.3685         estimate D2E/DX2                !
 ! R2    R(1,3)                  1.4216         estimate D2E/DX2                !
 ! R3    R(1,9)                  1.0817         estimate D2E/DX2                !
 ! R4    R(2,6)                  1.4399         estimate D2E/DX2                !
 ! R5    R(2,10)                 1.0817         estimate D2E/DX2                !
 ! R6    R(3,4)                  1.3905         estimate D2E/DX2                !
 ! R7    R(3,13)                 1.0816         estimate D2E/DX2                !
 ! R8    R(4,5)                  1.3874         estimate D2E/DX2                !
 ! R9    R(4,11)                 1.0815         estimate D2E/DX2                !
 ! R10   R(5,6)                  1.4608         estimate D2E/DX2                !
 ! R11   R(5,12)                 1.3349         estimate D2E/DX2                !
 ! R12   R(6,8)                  1.2567         estimate D2E/DX2                !
 ! R13   R(7,12)                 0.9764         estimate D2E/DX2                !
 ! A1    A(2,1,3)              120.7031         estimate D2E/DX2                !
 ! A2    A(2,1,9)              120.2389         estimate D2E/DX2                !
 ! A3    A(3,1,9)              119.058          estimate D2E/DX2                !
 ! A4    A(1,2,6)              120.1912         estimate D2E/DX2                !
 ! A5    A(1,2,10)             122.047          estimate D2E/DX2                !
 ! A6    A(6,2,10)             117.7618         estimate D2E/DX2                !
 ! A7    A(1,3,4)              121.548          estimate D2E/DX2                !
 ! A8    A(1,3,13)             119.1542         estimate D2E/DX2                !
 ! A9    A(4,3,13)             119.2978         estimate D2E/DX2                !
 ! A10   A(3,4,5)              118.7542         estimate D2E/DX2                !
 ! A11   A(3,4,11)             121.3172         estimate D2E/DX2                !
 ! A12   A(5,4,11)             119.9286         estimate D2E/DX2                !
 ! A13   A(4,5,6)              121.4489         estimate D2E/DX2                !
 ! A14   A(4,5,12)             121.5971         estimate D2E/DX2                !
 ! A15   A(6,5,12)             116.9541         estimate D2E/DX2                !
 ! A16   A(2,6,5)              117.3546         estimate D2E/DX2                !
 ! A17   A(2,6,8)              124.5621         estimate D2E/DX2                !
 ! A18   A(5,6,8)              118.0832         estimate D2E/DX2                !
 ! A19   A(5,12,7)             106.9247         estimate D2E/DX2                !
 ! D1    D(3,1,2,6)              0.0            estimate D2E/DX2                !
 ! D2    D(3,1,2,10)          -179.9997         estimate D2E/DX2                !
 ! D3    D(9,1,2,6)            179.9997         estimate D2E/DX2                !
 ! D4    D(9,1,2,10)             0.0            estimate D2E/DX2                !
 ! D5    D(2,1,3,4)             -0.001          estimate D2E/DX2                !
 ! D6    D(2,1,3,13)           180.0            estimate D2E/DX2                !
 ! D7    D(9,1,3,4)            179.9993         estimate D2E/DX2                !
 ! D8    D(9,1,3,13)             0.0003         estimate D2E/DX2                !
 ! D9    D(1,2,6,5)              0.0009         estimate D2E/DX2                !
 ! D10   D(1,2,6,8)           -179.9995         estimate D2E/DX2                !
 ! D11   D(10,2,6,5)          -179.9994         estimate D2E/DX2                !
 ! D12   D(10,2,6,8)             0.0002         estimate D2E/DX2                !
 ! D13   D(1,3,4,5)              0.0009         estimate D2E/DX2                !
 ! D14   D(1,3,4,11)          -179.9997         estimate D2E/DX2                !
 ! D15   D(13,3,4,5)           180.0            estimate D2E/DX2                !
 ! D16   D(13,3,4,11)           -0.0006         estimate D2E/DX2                !
 ! D17   D(3,4,5,6)              0.0            estimate D2E/DX2                !
 ! D18   D(3,4,5,12)          -179.9985         estimate D2E/DX2                !
 ! D19   D(11,4,5,6)          -179.9994         estimate D2E/DX2                !
 ! D20   D(11,4,5,12)            0.0021         estimate D2E/DX2                !
 ! D21   D(4,5,6,2)             -0.0009         estimate D2E/DX2                !
 ! D22   D(4,5,6,8)            179.9995         estimate D2E/DX2                !
 ! D23   D(12,5,6,2)           179.9977         estimate D2E/DX2                !
 ! D24   D(12,5,6,8)            -0.002          estimate D2E/DX2                !
 ! D25   D(4,5,12,7)           179.999          estimate D2E/DX2                !
 ! D26   D(6,5,12,7)             0.0004         estimate D2E/DX2                !
 --------------------------------------------------------------------------------
 Trust Radius=3.00D-01 FncErr=5.00D-06 GrdErr=5.00D-06 EigMax=2.50D+02 EigMin=1.00D-04
 Number of steps in this run=     68 maximum allowed number of steps=    100.
 GradGradGradGradGradGradGradGradGradGradGradGradGradGradGradGradGradGrad

 Leave Link  103 at Wed Apr  9 18:02:26 2025, MaxMem=  8053063680 cpu:               4.3 elap:               0.2
 (Enter /export/g16/l202.exe)
                          Input orientation:                          
 ---------------------------------------------------------------------
 Center     Atomic      Atomic             Coordinates (Angstroms)
 Number     Number       Type             X           Y           Z
 ---------------------------------------------------------------------
      1          6           0       -1.896250    0.590180   -0.000010
      2          6           0       -0.783030    1.386160   -0.000010
      3          6           0       -1.775750   -0.826260    0.000010
      4          6           0       -0.533400   -1.450700    0.000010
      5          6           0        0.609140   -0.663680    0.000010
      6          6           0        0.529850    0.794940    0.000010
      7          1           0        2.467710   -0.463770   -0.000030
      8          8           0        1.604820    1.445830    0.000020
      9          1           0       -2.882960    1.033530   -0.000020
     10          1           0       -0.849420    2.465840   -0.000020
     11          1           0       -0.446070   -2.528620    0.000020
     12          8           0        1.830120   -1.203280   -0.000020
     13          1           0       -2.672250   -1.431340    0.000010
 ---------------------------------------------------------------------
                    Distance matrix (angstroms):
                    1          2          3          4          5
     1  C    0.000000
     2  C    1.368519   0.000000
     3  C    1.421556   2.424932   0.000000
     4  C    2.454089   2.847822   1.390453   0.000000
     5  C    2.801632   2.477899   2.390425   1.387371   0.000000
     6  C    2.434725   1.439859   2.818525   2.484633   1.460773
     7  H    4.489427   3.740261   4.258914   3.159223   1.869290
     8  O    3.604113   2.388595   4.073162   3.600260   2.332683
     9  H    1.081737   2.129332   2.164424   3.419332   3.882690
    10  H    2.148012   1.081719   3.419943   3.929269   3.452723
    11  H    3.439467   3.929255   2.160111   1.081452   2.142771
    12  O    4.135497   3.678825   3.625527   2.376435   1.334901
    13  H    2.165345   3.392265   1.081589   2.138938   3.369988
                    6          7          8          9         10
     6  C    0.000000
     7  H    2.310769   0.000000
     8  O    1.256670   2.095507   0.000000
     9  H    3.421140   5.556220   4.506680   0.000000
    10  H    2.166632   4.425603   2.657765   2.487327   0.000000
    11  H    3.463881   3.571235   4.472405   4.315941   5.010721
    12  O    2.384027   0.976420   2.658673   5.216938   4.543388
    13  H    3.899970   5.230237   5.154749   2.473860   4.302409
                   11         12         13
    11  H    0.000000
    12  O    2.633926   0.000000
    13  H    2.481915   4.508142   0.000000
 Stoichiometry    C6H5O2(2)
 Framework group  C1[X(C6H5O2)]
 Deg. of freedom    33
 Full point group                 C1      NOp   1
 Largest Abelian subgroup         C1      NOp   1
 Largest concise Abelian subgroup C1      NOp   1
                         Standard orientation:                         
 ---------------------------------------------------------------------
 Center     Atomic      Atomic             Coordinates (Angstroms)
 Number     Number       Type             X           Y           Z
 ---------------------------------------------------------------------
      1          6           0        1.896248    0.590181    0.000011
      2          6           0        0.783029    1.386162    0.000011
      3          6           0        1.775748   -0.826259   -0.000009
      4          6           0        0.533398   -1.450698   -0.000009
      5          6           0       -0.609142   -0.663678   -0.000009
      6          6           0       -0.529852    0.794942   -0.000009
      7          1           0       -2.467712   -0.463767    0.000031
      8          8           0       -1.604821    1.445833   -0.000019
      9          1           0        2.882958    1.033531    0.000021
     10          1           0        0.849419    2.465842    0.000021
     11          1           0        0.446067   -2.528618   -0.000019
     12          8           0       -1.830122   -1.203277    0.000021
     13          1           0        2.672248   -1.431339   -0.000009
 ---------------------------------------------------------------------
 Rotational constants (GHZ):           3.4603417           2.3307014           1.3926719
 Leave Link  202 at Wed Apr  9 18:02:26 2025, MaxMem=  8053063680 cpu:               2.9 elap:               0.1
 (Enter /export/g16/l301.exe)
 Standard basis: 6-31+G(d) (6D, 7F)
 Ernie: Thresh=  0.10000D-02 Tol=  0.10000D-05 Strict=F.
 There are   162 symmetry adapted cartesian basis functions of A   symmetry.
 There are   162 symmetry adapted basis functions of A   symmetry.
   162 basis functions,   276 primitive gaussians,   162 cartesian basis functions
    29 alpha electrons       28 beta electrons
       nuclear repulsion energy       340.2746309543 Hartrees.
 IExCor= 4336 DFT=T Ex+Corr=M062X ExCW=0 ScaHFX=  0.540000
 ScaDFX=  1.000000  1.000000  1.000000  1.000000 ScalE2=  1.000000  1.000000
 IRadAn=      5 IRanWt=     -1 IRanGd=            0 ICorTp=0 IEmpDi=  4
 NAtoms=   13 NActive=   13 NUniq=   13 SFac= 1.00D+00 NAtFMM=   60 NAOKFM=F Big=F
 Integral buffers will be    131072 words long.
 Raffenetti 2 integral format.
 Two-electron integral symmetry is turned on.
 ------------------------------------------------------------------------------
 Polarizable Continuum Model (PCM)
 =================================
 Model                : PCM.
 Atomic radii         : SMD-Coulomb.
 Polarization charges : Total charges.
 Charge compensation  : None.
 Solution method      : On-the-fly selection.
 Cavity type          : VdW (van der Waals Surface) (Alpha=1.000).
 Cavity algorithm     : GePol (No added spheres)
                        Default sphere list used, NSphG=   13.
                        Lebedev-Laikov grids with approx.  5.0 points / Ang**2.
                        Smoothing algorithm: York/Karplus (Gamma=1.0000).
                        Polarization charges: spherical gaussians, with
                                              point-specific exponents (IZeta= 3).
                        Self-potential: point-specific (ISelfS= 7).
                        Self-field    : sphere-specific E.n sum rule (ISelfD= 2).
 1st derivatives      : Analytical E(r).r(x)/FMM algorithm (CHGder, D1EAlg=3).
                        Cavity 1st derivative terms included.
 Solvent              : Water, Eps=  78.355300 Eps(inf)=   1.777849
 ------------------------------------------------------------------------------
 Spheres list:
 ISph  on   Nord     Re0    Alpha      Xe            Ye            Ze
    1   C      1    1.8500  1.000      1.896248      0.590181      0.000011
    2   C      2    1.8500  1.000      0.783029      1.386162      0.000011
    3   C      3    1.8500  1.000      1.775748     -0.826259     -0.000009
    4   C      4    1.8500  1.000      0.533398     -1.450698     -0.000009
    5   C      5    1.8500  1.000     -0.609142     -0.663678     -0.000009
    6   C      6    1.8500  1.000     -0.529852      0.794942     -0.000009
    7   H      7    1.2000  1.000     -2.467712     -0.463767      0.000031
    8   O      8    1.5200  1.000     -1.604821      1.445833     -0.000019
    9   H      9    1.2000  1.000      2.882958      1.033531      0.000021
   10   H     10    1.2000  1.000      0.849419      2.465842      0.000021
   11   H     11    1.2000  1.000      0.446067     -2.528618     -0.000019
   12   O     12    1.5200  1.000     -1.830122     -1.203277      0.000021
   13   H     13    1.2000  1.000      2.672248     -1.431339     -0.000009
 ------------------------------------------------------------------------------
 GePol: Number of generator spheres                  =      13
 GePol: Total number of spheres                      =      13
 GePol: Number of exposed spheres                    =      13 (100.00%)
 GePol: Number of points                             =    1050
 GePol: Average weight of points                     =       0.12
 GePol: Minimum weight of points                     =   0.78D-07
 GePol: Maximum weight of points                     =    0.21991
 GePol: Number of points with low weight             =      37
 GePol: Fraction of low-weight points (<1% of avg)   =       3.52%
 GePol: Cavity surface area                          =    126.620 Ang**2
 GePol: Cavity volume                                =    105.926 Ang**3
 ------------------------------------------------------------------------------
 Atomic radii for non-electrostatic terms: SMD-CDS.
 ------------------------------------------------------------------------------
 PCM non-electrostatic energy =         0.0065036203 Hartrees.
 Nuclear repulsion after PCM non-electrostatic terms =      340.2811345746 Hartrees.
 Leave Link  301 at Wed Apr  9 18:02:27 2025, MaxMem=  8053063680 cpu:               7.2 elap:               0.2
 (Enter /export/g16/l302.exe)
 NPDir=0 NMtPBC=     1 NCelOv=     1 NCel=       1 NClECP=     1 NCelD=      1
         NCelK=      1 NCelE2=     1 NClLst=     1 CellRange=     0.0.
 One-electron integrals computed using PRISM.
 One-electron integral symmetry used in STVInt
 NBasis=   162 RedAO= T EigKep=  3.98D-06  NBF=   162
 NBsUse=   162 1.00D-06 EigRej= -1.00D+00 NBFU=   162
 Precomputing XC quadrature grid using
 IXCGrd= 4 IRadAn=           5 IRanWt=          -1 IRanGd=           0 AccXCQ= 0.00D+00.
 Generated NRdTot=       0 NPtTot=           0 NUsed=           0 NTot=          32
 NSgBfM=   162   162   162   162   162 MxSgAt=    13 MxSgA2=    13.
 Leave Link  302 at Wed Apr  9 18:02:27 2025, MaxMem=  8053063680 cpu:              17.5 elap:               0.5
 (Enter /export/g16/l303.exe)
 DipDrv:  MaxL=1.
 Leave Link  303 at Wed Apr  9 18:02:28 2025, MaxMem=  8053063680 cpu:              11.1 elap:               0.4
 (Enter /export/g16/l401.exe)
 ExpMin= 4.38D-02 ExpMax= 5.48D+03 ExpMxC= 8.25D+02 IAcc=3 IRadAn=         5 AccDes= 0.00D+00
 Harris functional with IExCor= 1009 and IRadAn=       5 diagonalized for initial guess.
 HarFok:  IExCor= 1009 AccDes= 0.00D+00 IRadAn=         5 IDoV= 1 UseB2=F ITyADJ=14
 ICtDFT=  3500011 ScaDFX=  1.000000  1.000000  1.000000  1.000000
 FoFCou: FMM=F IPFlag=           0 FMFlag=      100000 FMFlg1=           0
         NFxFlg=           0 DoJE=T BraDBF=F KetDBF=T FulRan=T
         wScrn=  0.000000 ICntrl=       500 IOpCl=  0 I1Cent=   200000004 NGrid=           0
         NMat0=    1 NMatS0=      1 NMatT0=    0 NMatD0=    1 NMtDS0=    0 NMtDT0=    0
 Petite list used in FoFCou.
 Harris En= -381.712184969485    
 JPrj=0 DoOrth=F DoCkMO=F.
 Initial guess <Sx>= 0.0000 <Sy>= 0.0000 <Sz>= 0.5000 <S**2>= 0.7500 S= 0.5000
 Leave Link  401 at Wed Apr  9 18:02:29 2025, MaxMem=  8053063680 cpu:              31.1 elap:               0.8
 (Enter /export/g16/l502.exe)
 Integral symmetry usage will be decided dynamically.
 UHF open shell SCF:
 Using DIIS extrapolation, IDIIS=    10.
 NGot=  8053063680 LenX=  8053002331 LenY=  8052975646
 Requested convergence on RMS density matrix=1.00D-08 within 128 cycles.
 Requested convergence on MAX density matrix=1.00D-06.
 Requested convergence on             energy=1.00D-06.
 Level shift goal  0.100 maximum shift  0.100.
 No special actions if energy rises.
 Dynamic level shift is on during FON iterations.
 Fock matrices will be formed incrementally for  20 cycles.

 Cycle   1  Pass 1  IDiag  1:
 FoFJK:  IHMeth= 1 ICntrl=       0 DoSepK=F KAlg= 0 I1Cent=           0 FoldK=F
 IRaf= 980000000 NMat=       1 IRICut=       1 DoRegI=T DoRafI=F ISym2E= 0 IDoP0=0 IntGTp=1.
 FoFCou: FMM=F IPFlag=           0 FMFlag=      100000 FMFlg1=           0
         NFxFlg=           0 DoJE=F BraDBF=F KetDBF=F FulRan=T
         wScrn=  0.000000 ICntrl=         0 IOpCl=  1 I1Cent=           0 NGrid=           0
         NMat0=    1 NMatS0=      1 NMatT0=    0 NMatD0=    1 NMtDS0=    0 NMtDT0=    0
 Symmetry not used in FoFCou.
 Inv3:  Mode=1 IEnd=     3307500.
 Iteration    1 A*A^-1 deviation from unit magnitude is 3.89D-15 for   1048.
 Iteration    1 A*A^-1 deviation from orthogonality  is 1.27D-15 for    785    125.
 Iteration    1 A^-1*A deviation from unit magnitude is 3.89D-15 for   1048.
 Iteration    1 A^-1*A deviation from orthogonality  is 5.15D-15 for    439    417.
 E= -381.765482098102    
 DIIS: error= 3.72D-02 at cycle   1 NSaved=   1.
 NSaved= 1 IEnMin= 1 EnMin= -381.765482098102     IErMin= 1 ErrMin= 3.72D-02
 ErrMax= 3.72D-02  0.00D+00 EMaxC= 1.00D+00 BMatC= 7.43D-01 BMatP= 7.43D-01
 IDIUse=1 WtCom= 1.00D+00 WtEn= 0.00D+00
 Coeff-Com:  0.100D+01
 Coeff:      0.100D+01
 Gap=     0.281 Goal=     0.100 Shift=    0.000
 T= 1626. Gap= 0.222 NK=0 IS=   30 IE=  162 IFin=   29
          NO(<0.9)=   0  NV(>0.1)=   0     29.00e < EF      0.00e >EF  Err=0.0D+00
 Gap=     0.170 Goal=     0.100 Shift=    0.000
 T= 1626. Gap= 0.165 NK=0 IS=   29 IE=  162 IFin=   28
          NO(<0.9)=   0  NV(>0.1)=   0     28.00e < EF      0.00e >EF  Err=0.0D+00
 GapD=    0.170 DampG=1.000 DampE=0.500 DampFc=0.5000 IDamp=-1.
 Damping current iteration by 5.00D-01
 RMSDP=1.31D-02 MaxDP=3.56D-01              OVMax= 1.74D-01

 Cycle   2  Pass 1  IDiag  1:
 RMSU=  6.51D-03    CP:  9.83D-01
 E= -381.843790249465     Delta-E=       -0.078308151362 Rises=F Damp=T
 DIIS: error= 1.14D-02 at cycle   2 NSaved=   2.
 NSaved= 2 IEnMin= 2 EnMin= -381.843790249465     IErMin= 2 ErrMin= 1.14D-02
 ErrMax= 1.14D-02  0.00D+00 EMaxC= 1.00D+00 BMatC= 7.20D-02 BMatP= 7.43D-01
 IDIUse=1 WtCom= 1.00D+00 WtEn= 0.00D+00
 Coeff-Com: -0.104D+00 0.110D+01
 Coeff:     -0.104D+00 0.110D+01
 Gap=     0.294 Goal=     0.100 Shift=    0.000
 T= 1468. Gap= 0.280 NK=4 IS=   30 IE=   43 IFin=   29
          NO(<0.9)=   0  NV(>0.1)=   0     29.00e < EF      0.00e >EF  Err=0.0D+00
 Gap=     0.188 Goal=     0.100 Shift=    0.000
 T= 1468. Gap= 0.185 NK=4 IS=   29 IE=   43 IFin=   28
          NO(<0.9)=   0  NV(>0.1)=   0     28.00e < EF      0.00e >EF  Err=0.0D+00
 GapD=    0.188 DampG=1.000 DampE=0.500 DampFc=0.5000 IDamp=-1.
 Damping current iteration by 5.00D-01
 RMSDP=6.15D-03 MaxDP=3.15D-01 DE=-7.83D-02 OVMax= 8.33D-02

 Cycle   3  Pass 1  IDiag  1:
 RMSU=  2.42D-03    CP:  9.40D-01  1.15D+00
 E= -381.881623142445     Delta-E=       -0.037832892980 Rises=F Damp=T
 DIIS: error= 5.74D-03 at cycle   3 NSaved=   3.
 NSaved= 3 IEnMin= 3 EnMin= -381.881623142445     IErMin= 3 ErrMin= 5.74D-03
 ErrMax= 5.74D-03  0.00D+00 EMaxC= 1.00D+00 BMatC= 1.79D-02 BMatP= 7.20D-02
 IDIUse=1 WtCom= 1.00D+00 WtEn= 0.00D+00
 Coeff-Com: -0.121D+00-0.205D+00 0.133D+01
 Coeff:     -0.121D+00-0.205D+00 0.133D+01
 Gap=     0.279 Goal=     0.100 Shift=    0.000
 T= 1193. Gap= 0.278 NK=4 IS=   30 IE=   43 IFin=   29
          NO(<0.9)=   0  NV(>0.1)=   0     29.00e < EF      0.00e >EF  Err=0.0D+00
 Gap=     0.194 Goal=     0.100 Shift=    0.000
 T= 1193. Gap= 0.194 NK=4 IS=   29 IE=   43 IFin=   28
          NO(<0.9)=   0  NV(>0.1)=   0     28.00e < EF      0.00e >EF  Err=0.0D+00
 GapD=    0.194 DampG=1.000 DampE=1.000 DampFc=1.0000 IDamp=-1.
 RMSDP=3.29D-03 MaxDP=1.48D-01 DE=-3.78D-02 OVMax= 3.51D-02

 Cycle   4  Pass 1  IDiag  1:
 RMSU=  1.08D-03    CP:  8.92D-01  1.31D+00  1.94D+00
 E= -381.921072440108     Delta-E=       -0.039449297664 Rises=F Damp=F
 DIIS: error= 2.75D-03 at cycle   4 NSaved=   4.
 NSaved= 4 IEnMin= 4 EnMin= -381.921072440108     IErMin= 4 ErrMin= 2.75D-03
 ErrMax= 2.75D-03  0.00D+00 EMaxC= 1.00D+00 BMatC= 4.86D-03 BMatP= 1.79D-02
 IDIUse=1 WtCom= 1.00D+00 WtEn= 0.00D+00
 Coeff-Com: -0.399D-01-0.236D+00 0.652D+00 0.624D+00
 Coeff:     -0.399D-01-0.236D+00 0.652D+00 0.624D+00
 Gap=     0.282 Goal=     0.100 Shift=    0.000
 T=  589. Gap= 0.282 NK=4 IS=   30 IE=   43 IFin=   29
          NO(<0.9)=   0  NV(>0.1)=   0     29.00e < EF      0.00e >EF  Err=0.0D+00
 Gap=     0.192 Goal=     0.100 Shift=    0.000
 T=  589. Gap= 0.192 NK=4 IS=   29 IE=   43 IFin=   28
          NO(<0.9)=   0  NV(>0.1)=   0     28.00e < EF      0.00e >EF  Err=0.0D+00
 GapD=    0.192 DampG=1.000 DampE=1.000 DampFc=1.0000 IDamp=-1.
 RMSDP=4.59D-04 MaxDP=1.32D-02 DE=-3.94D-02 OVMax= 1.12D-02

 Cycle   5  Pass 1  IDiag  1:
 RMSU=  3.53D-04    CP:  8.91D-01  1.31D+00  2.03D+00  8.15D-01
 E= -381.922207441091     Delta-E=       -0.001135000982 Rises=F Damp=F
 DIIS: error= 8.33D-04 at cycle   5 NSaved=   5.
 NSaved= 5 IEnMin= 5 EnMin= -381.922207441091     IErMin= 5 ErrMin= 8.33D-04
 ErrMax= 8.33D-04  0.00D+00 EMaxC= 1.00D+00 BMatC= 2.25D-04 BMatP= 4.86D-03
 IDIUse=1 WtCom= 1.00D+00 WtEn= 0.00D+00
 Coeff-Com: -0.738D-02-0.822D-01 0.182D+00 0.208D+00 0.700D+00
 Coeff:     -0.738D-02-0.822D-01 0.182D+00 0.208D+00 0.700D+00
 Gap=     0.282 Goal=     0.100 Shift=    0.000
 Gap=     0.195 Goal=     0.100 Shift=    0.000
 RMSDP=2.54D-04 MaxDP=1.18D-02 DE=-1.14D-03 OVMax= 7.44D-03

 Cycle   6  Pass 1  IDiag  1:
 RMSU=  1.87D-04    CP:  8.87D-01  1.30D+00  2.04D+00  8.66D-01  9.28D-01
 E= -381.922338602483     Delta-E=       -0.000131161392 Rises=F Damp=F
 DIIS: error= 5.59D-04 at cycle   6 NSaved=   6.
 NSaved= 6 IEnMin= 6 EnMin= -381.922338602483     IErMin= 6 ErrMin= 5.59D-04
 ErrMax= 5.59D-04  0.00D+00 EMaxC= 1.00D+00 BMatC= 6.89D-05 BMatP= 2.25D-04
 IDIUse=1 WtCom= 1.00D+00 WtEn= 0.00D+00
 Coeff-Com:  0.119D-01 0.472D-01-0.149D+00-0.170D+00 0.965D-01 0.116D+01
 Coeff:      0.119D-01 0.472D-01-0.149D+00-0.170D+00 0.965D-01 0.116D+01
 Gap=     0.283 Goal=     0.100 Shift=    0.000
 Gap=     0.196 Goal=     0.100 Shift=    0.000
 RMSDP=1.47D-04 MaxDP=3.55D-03 DE=-1.31D-04 OVMax= 1.13D-02

 Cycle   7  Pass 1  IDiag  1:
 RMSU=  9.97D-05    CP:  8.87D-01  1.29D+00  2.06D+00  8.64D-01  1.17D+00
                    CP:  1.06D+00
 E= -381.922435060548     Delta-E=       -0.000096458065 Rises=F Damp=F
 DIIS: error= 3.31D-04 at cycle   7 NSaved=   7.
 NSaved= 7 IEnMin= 7 EnMin= -381.922435060548     IErMin= 7 ErrMin= 3.31D-04
 ErrMax= 3.31D-04  0.00D+00 EMaxC= 1.00D+00 BMatC= 1.81D-05 BMatP= 6.89D-05
 IDIUse=1 WtCom= 1.00D+00 WtEn= 0.00D+00
 Coeff-Com:  0.486D-02 0.217D-01-0.610D-01-0.918D-01-0.165D+00 0.213D+00
 Coeff-Com:  0.108D+01
 Coeff:      0.486D-02 0.217D-01-0.610D-01-0.918D-01-0.165D+00 0.213D+00
 Coeff:      0.108D+01
 Gap=     0.284 Goal=     0.100 Shift=    0.000
 Gap=     0.197 Goal=     0.100 Shift=    0.000
 RMSDP=8.96D-05 MaxDP=2.29D-03 DE=-9.65D-05 OVMax= 8.13D-03

 Cycle   8  Pass 1  IDiag  1:
 RMSU=  3.59D-05    CP:  8.86D-01  1.29D+00  2.06D+00  8.49D-01  1.26D+00
                    CP:  1.26D+00  1.60D+00
 E= -381.922464694574     Delta-E=       -0.000029634025 Rises=F Damp=F
 DIIS: error= 1.46D-04 at cycle   8 NSaved=   8.
 NSaved= 8 IEnMin= 8 EnMin= -381.922464694574     IErMin= 8 ErrMin= 1.46D-04
 ErrMax= 1.46D-04  0.00D+00 EMaxC= 1.00D+00 BMatC= 6.22D-06 BMatP= 1.81D-05
 IDIUse=1 WtCom= 1.00D+00 WtEn= 0.00D+00
 Coeff-Com: -0.142D-03-0.313D-02 0.900D-02-0.681D-02-0.818D-01-0.156D+00
 Coeff-Com:  0.434D+00 0.805D+00
 Coeff:     -0.142D-03-0.313D-02 0.900D-02-0.681D-02-0.818D-01-0.156D+00
 Coeff:      0.434D+00 0.805D+00
 Gap=     0.284 Goal=     0.100 Shift=    0.000
 Gap=     0.197 Goal=     0.100 Shift=    0.000
 RMSDP=4.53D-05 MaxDP=9.64D-04 DE=-2.96D-05 OVMax= 3.77D-03

 Cycle   9  Pass 1  IDiag  1:
 RMSU=  1.72D-05    CP:  8.87D-01  1.29D+00  2.06D+00  8.35D-01  1.30D+00
                    CP:  1.27D+00  1.91D+00  1.36D+00
 E= -381.922471758653     Delta-E=       -0.000007064080 Rises=F Damp=F
 DIIS: error= 1.05D-04 at cycle   9 NSaved=   9.
 NSaved= 9 IEnMin= 9 EnMin= -381.922471758653     IErMin= 9 ErrMin= 1.05D-04
 ErrMax= 1.05D-04  0.00D+00 EMaxC= 1.00D+00 BMatC= 1.29D-06 BMatP= 6.22D-06
 IDIUse=1 WtCom= 1.00D+00 WtEn= 0.00D+00
 Coeff-Com: -0.173D-02-0.112D-01 0.292D-01 0.334D-01 0.601D-01-0.111D+00
 Coeff-Com: -0.330D+00 0.863D-01 0.124D+01
 Coeff:     -0.173D-02-0.112D-01 0.292D-01 0.334D-01 0.601D-01-0.111D+00
 Coeff:     -0.330D+00 0.863D-01 0.124D+01
 Gap=     0.284 Goal=     0.100 Shift=    0.000
 Gap=     0.197 Goal=     0.100 Shift=    0.000
 RMSDP=3.23D-05 MaxDP=7.88D-04 DE=-7.06D-06 OVMax= 3.61D-03

 Cycle  10  Pass 1  IDiag  1:
 RMSU=  1.07D-05    CP:  8.87D-01  1.29D+00  2.06D+00  8.27D-01  1.32D+00
                    CP:  1.26D+00  2.12D+00  1.78D+00  1.58D+00
 E= -381.922475086401     Delta-E=       -0.000003327747 Rises=F Damp=F
 DIIS: error= 4.25D-05 at cycle  10 NSaved=  10.
 NSaved=10 IEnMin=10 EnMin= -381.922475086401     IErMin=10 ErrMin= 4.25D-05
 ErrMax= 4.25D-05  0.00D+00 EMaxC= 1.00D+00 BMatC= 3.31D-07 BMatP= 1.29D-06
 IDIUse=1 WtCom= 1.00D+00 WtEn= 0.00D+00
 Coeff-Com: -0.959D-04-0.741D-03 0.149D-02 0.394D-02 0.187D-01 0.115D-01
 Coeff-Com: -0.112D+00-0.166D+00 0.200D+00 0.104D+01
 Coeff:     -0.959D-04-0.741D-03 0.149D-02 0.394D-02 0.187D-01 0.115D-01
 Coeff:     -0.112D+00-0.166D+00 0.200D+00 0.104D+01
 Gap=     0.284 Goal=     0.100 Shift=    0.000
 Gap=     0.197 Goal=     0.100 Shift=    0.000
 RMSDP=1.37D-05 MaxDP=3.47D-04 DE=-3.33D-06 OVMax= 1.73D-03

 Cycle  11  Pass 1  IDiag  1:
 RMSU=  4.66D-06    CP:  8.87D-01  1.29D+00  2.06D+00  8.25D-01  1.33D+00
                    CP:  1.26D+00  2.20D+00  1.90D+00  1.94D+00  1.37D+00
 E= -381.922475847148     Delta-E=       -0.000000760747 Rises=F Damp=F
 DIIS: error= 2.80D-05 at cycle  11 NSaved=  11.
 NSaved=11 IEnMin=11 EnMin= -381.922475847148     IErMin=11 ErrMin= 2.80D-05
 ErrMax= 2.80D-05  0.00D+00 EMaxC= 1.00D+00 BMatC= 9.24D-08 BMatP= 3.31D-07
 IDIUse=1 WtCom= 1.00D+00 WtEn= 0.00D+00
 Coeff-Com:  0.597D-03 0.349D-02-0.952D-02-0.961D-02-0.109D-01 0.511D-01
 Coeff-Com:  0.593D-01-0.129D+00-0.331D+00 0.442D+00 0.934D+00
 Coeff:      0.597D-03 0.349D-02-0.952D-02-0.961D-02-0.109D-01 0.511D-01
 Coeff:      0.593D-01-0.129D+00-0.331D+00 0.442D+00 0.934D+00
 Gap=     0.284 Goal=     0.100 Shift=    0.000
 Gap=     0.197 Goal=     0.100 Shift=    0.000
 RMSDP=7.41D-06 MaxDP=2.32D-04 DE=-7.61D-07 OVMax= 1.11D-03

 Cycle  12  Pass 1  IDiag  1:
 RMSU=  2.82D-06    CP:  8.87D-01  1.29D+00  2.06D+00  8.25D-01  1.34D+00
                    CP:  1.27D+00  2.21D+00  1.97D+00  2.10D+00  1.67D+00
                    CP:  1.49D+00
 E= -381.922476065477     Delta-E=       -0.000000218329 Rises=F Damp=F
 DIIS: error= 9.91D-06 at cycle  12 NSaved=  12.
 NSaved=12 IEnMin=12 EnMin= -381.922476065477     IErMin=12 ErrMin= 9.91D-06
 ErrMax= 9.91D-06  0.00D+00 EMaxC= 1.00D+00 BMatC= 1.77D-08 BMatP= 9.24D-08
 IDIUse=1 WtCom= 1.00D+00 WtEn= 0.00D+00
 Coeff-Com:  0.545D-04 0.407D-03-0.990D-03-0.133D-02-0.555D-02 0.485D-02
 Coeff-Com:  0.225D-01 0.141D-01-0.539D-01-0.202D+00 0.191D+00 0.103D+01
 Coeff:      0.545D-04 0.407D-03-0.990D-03-0.133D-02-0.555D-02 0.485D-02
 Coeff:      0.225D-01 0.141D-01-0.539D-01-0.202D+00 0.191D+00 0.103D+01
 Gap=     0.284 Goal=     0.100 Shift=    0.000
 Gap=     0.197 Goal=     0.100 Shift=    0.000
 RMSDP=2.92D-06 MaxDP=9.65D-05 DE=-2.18D-07 OVMax= 4.09D-04

 Cycle  13  Pass 1  IDiag  1:
 RMSU=  1.14D-06    CP:  8.87D-01  1.29D+00  2.06D+00  8.25D-01  1.34D+00
                    CP:  1.27D+00  2.23D+00  1.98D+00  2.14D+00  1.73D+00
                    CP:  1.88D+00  1.33D+00
 E= -381.922476096686     Delta-E=       -0.000000031210 Rises=F Damp=F
 DIIS: error= 3.16D-06 at cycle  13 NSaved=  13.
 NSaved=13 IEnMin=13 EnMin= -381.922476096686     IErMin=13 ErrMin= 3.16D-06
 ErrMax= 3.16D-06  0.00D+00 EMaxC= 1.00D+00 BMatC= 3.14D-09 BMatP= 1.77D-08
 IDIUse=1 WtCom= 1.00D+00 WtEn= 0.00D+00
 Coeff-Com: -0.805D-04-0.441D-03 0.124D-02 0.129D-02-0.264D-03-0.508D-02
 Coeff-Com: -0.556D-02 0.225D-01 0.391D-01-0.147D+00-0.629D-01 0.224D+00
 Coeff-Com:  0.933D+00
 Coeff:     -0.805D-04-0.441D-03 0.124D-02 0.129D-02-0.264D-03-0.508D-02
 Coeff:     -0.556D-02 0.225D-01 0.391D-01-0.147D+00-0.629D-01 0.224D+00
 Coeff:      0.933D+00
 Gap=     0.284 Goal=     0.100 Shift=    0.000
 Gap=     0.197 Goal=     0.100 Shift=    0.000
 RMSDP=1.26D-06 MaxDP=4.18D-05 DE=-3.12D-08 OVMax= 1.64D-04

 Cycle  14  Pass 1  IDiag  1:
 RMSU=  3.91D-07    CP:  8.87D-01  1.29D+00  2.06D+00  8.25D-01  1.34D+00
                    CP:  1.27D+00  2.23D+00  1.99D+00  2.16D+00  1.75D+00
                    CP:  2.02D+00  1.50D+00  1.35D+00
 E= -381.922476101440     Delta-E=       -0.000000004754 Rises=F Damp=F
 DIIS: error= 1.38D-06 at cycle  14 NSaved=  14.
 NSaved=14 IEnMin=14 EnMin= -381.922476101440     IErMin=14 ErrMin= 1.38D-06
 ErrMax= 1.38D-06  0.00D+00 EMaxC= 1.00D+00 BMatC= 9.39D-10 BMatP= 3.14D-09
 IDIUse=1 WtCom= 1.00D+00 WtEn= 0.00D+00
 Coeff-Com: -0.409D-04-0.250D-03 0.666D-03 0.809D-03 0.842D-03-0.249D-02
 Coeff-Com: -0.798D-02 0.593D-02 0.303D-01-0.131D-01-0.525D-01-0.186D+00
 Coeff-Com:  0.393D+00 0.831D+00
 Coeff:     -0.409D-04-0.250D-03 0.666D-03 0.809D-03 0.842D-03-0.249D-02
 Coeff:     -0.798D-02 0.593D-02 0.303D-01-0.131D-01-0.525D-01-0.186D+00
 Coeff:      0.393D+00 0.831D+00
 Gap=     0.284 Goal=     0.100 Shift=    0.000
 Gap=     0.197 Goal=     0.100 Shift=    0.000
 RMSDP=4.98D-07 MaxDP=1.40D-05 DE=-4.75D-09 OVMax= 4.26D-05

 Cycle  15  Pass 1  IDiag  1:
 RMSU=  2.22D-07    CP:  8.87D-01  1.29D+00  2.06D+00  8.25D-01  1.34D+00
                    CP:  1.27D+00  2.23D+00  1.99D+00  2.16D+00  1.75D+00
                    CP:  2.07D+00  1.56D+00  1.58D+00  1.15D+00
 E= -381.922476102190     Delta-E=       -0.000000000750 Rises=F Damp=F
 DIIS: error= 4.53D-07 at cycle  15 NSaved=  15.
 NSaved=15 IEnMin=15 EnMin= -381.922476102190     IErMin=15 ErrMin= 4.53D-07
 ErrMax= 4.53D-07  0.00D+00 EMaxC= 1.00D+00 BMatC= 9.12D-11 BMatP= 9.39D-10
 IDIUse=1 WtCom= 1.00D+00 WtEn= 0.00D+00
 Coeff-Com:  0.196D-04 0.115D-03-0.312D-03-0.293D-03-0.148D-03 0.138D-02
 Coeff-Com:  0.144D-02-0.398D-02-0.102D-01 0.211D-01 0.246D-01-0.282D-01
 Coeff-Com: -0.191D+00-0.808D-01 0.127D+01
 Coeff:      0.196D-04 0.115D-03-0.312D-03-0.293D-03-0.148D-03 0.138D-02
 Coeff:      0.144D-02-0.398D-02-0.102D-01 0.211D-01 0.246D-01-0.282D-01
 Coeff:     -0.191D+00-0.808D-01 0.127D+01
 Gap=     0.284 Goal=     0.100 Shift=    0.000
 Gap=     0.197 Goal=     0.100 Shift=    0.000
 RMSDP=2.95D-07 MaxDP=1.14D-05 DE=-7.50D-10 OVMax= 1.97D-05

 Cycle  16  Pass 1  IDiag  1:
 RMSU=  9.67D-08    CP:  8.87D-01  1.29D+00  2.06D+00  8.25D-01  1.34D+00
                    CP:  1.27D+00  2.23D+00  1.99D+00  2.16D+00  1.75D+00
                    CP:  2.08D+00  1.57D+00  1.65D+00  1.29D+00  1.53D+00
 E= -381.922476102328     Delta-E=       -0.000000000138 Rises=F Damp=F
 DIIS: error= 2.38D-07 at cycle  16 NSaved=  16.
 NSaved=16 IEnMin=16 EnMin= -381.922476102328     IErMin=16 ErrMin= 2.38D-07
 ErrMax= 2.38D-07  0.00D+00 EMaxC= 1.00D+00 BMatC= 2.03D-11 BMatP= 9.12D-11
 IDIUse=1 WtCom= 1.00D+00 WtEn= 0.00D+00
 Coeff-Com:  0.113D-04 0.690D-04-0.185D-03-0.192D-03-0.144D-03 0.813D-03
 Coeff-Com:  0.145D-02-0.195D-02-0.739D-02 0.819D-02 0.169D-01 0.156D-01
 Coeff-Com: -0.110D+00-0.138D+00 0.434D+00 0.780D+00
 Coeff:      0.113D-04 0.690D-04-0.185D-03-0.192D-03-0.144D-03 0.813D-03
 Coeff:      0.145D-02-0.195D-02-0.739D-02 0.819D-02 0.169D-01 0.156D-01
 Coeff:     -0.110D+00-0.138D+00 0.434D+00 0.780D+00
 Gap=     0.284 Goal=     0.100 Shift=    0.000
 Gap=     0.197 Goal=     0.100 Shift=    0.000
 RMSDP=6.01D-08 MaxDP=1.28D-06 DE=-1.38D-10 OVMax= 4.08D-06

 Cycle  17  Pass 1  IDiag  1:
 RMSU=  3.36D-08    CP:  8.87D-01  1.29D+00  2.06D+00  8.25D-01  1.34D+00
                    CP:  1.27D+00  2.23D+00  1.99D+00  2.16D+00  1.75D+00
                    CP:  2.08D+00  1.57D+00  1.65D+00  1.30D+00  1.64D+00
                    CP:  1.17D+00
 E= -381.922476102350     Delta-E=       -0.000000000022 Rises=F Damp=F
 DIIS: error= 1.40D-07 at cycle  17 NSaved=  17.
 NSaved=17 IEnMin=17 EnMin= -381.922476102350     IErMin=17 ErrMin= 1.40D-07
 ErrMax= 1.40D-07  0.00D+00 EMaxC= 1.00D+00 BMatC= 3.99D-12 BMatP= 2.03D-11
 IDIUse=1 WtCom= 1.00D+00 WtEn= 0.00D+00
 Coeff-Com: -0.384D-05-0.184D-04 0.526D-04 0.476D-04 0.165D-04-0.233D-03
 Coeff-Com: -0.137D-03 0.834D-03 0.117D-02-0.461D-02-0.303D-02 0.107D-01
 Coeff-Com:  0.344D-01-0.147D-01-0.298D+00 0.139D+00 0.113D+01
 Coeff:     -0.384D-05-0.184D-04 0.526D-04 0.476D-04 0.165D-04-0.233D-03
 Coeff:     -0.137D-03 0.834D-03 0.117D-02-0.461D-02-0.303D-02 0.107D-01
 Coeff:      0.344D-01-0.147D-01-0.298D+00 0.139D+00 0.113D+01
 Gap=     0.284 Goal=     0.100 Shift=    0.000
 Gap=     0.197 Goal=     0.100 Shift=    0.000
 RMSDP=3.75D-08 MaxDP=1.18D-06 DE=-2.18D-11 OVMax= 3.73D-06

 Cycle  18  Pass 1  IDiag  1:
 RMSU=  2.03D-08    CP:  8.87D-01  1.29D+00  2.06D+00  8.25D-01  1.34D+00
                    CP:  1.27D+00  2.23D+00  1.99D+00  2.16D+00  1.75D+00
                    CP:  2.09D+00  1.57D+00  1.64D+00  1.30D+00  1.68D+00
                    CP:  1.39D+00  1.46D+00
 E= -381.922476102358     Delta-E=       -0.000000000008 Rises=F Damp=F
 DIIS: error= 4.10D-08 at cycle  18 NSaved=  18.
 NSaved=18 IEnMin=18 EnMin= -381.922476102358     IErMin=18 ErrMin= 4.10D-08
 ErrMax= 4.10D-08  0.00D+00 EMaxC= 1.00D+00 BMatC= 4.66D-13 BMatP= 3.99D-12
 IDIUse=1 WtCom= 1.00D+00 WtEn= 0.00D+00
 Coeff-Com: -0.657D-06-0.252D-05 0.784D-05 0.878D-05-0.180D-06-0.399D-04
 Coeff-Com: -0.816D-04 0.150D-03 0.477D-03-0.592D-03-0.835D-03-0.291D-02
 Coeff-Com:  0.973D-02 0.114D-01-0.288D-01-0.118D+00-0.352D-02 0.113D+01
 Coeff:     -0.657D-06-0.252D-05 0.784D-05 0.878D-05-0.180D-06-0.399D-04
 Coeff:     -0.816D-04 0.150D-03 0.477D-03-0.592D-03-0.835D-03-0.291D-02
 Coeff:      0.973D-02 0.114D-01-0.288D-01-0.118D+00-0.352D-02 0.113D+01
 Gap=     0.284 Goal=     0.100 Shift=    0.000
 Gap=     0.197 Goal=     0.100 Shift=    0.000
 RMSDP=1.40D-08 MaxDP=5.88D-07 DE=-7.73D-12 OVMax= 1.09D-06

 Cycle  19  Pass 1  IDiag  1:
 RMSU=  6.30D-09    CP:  8.87D-01  1.29D+00  2.06D+00  8.25D-01  1.34D+00
                    CP:  1.27D+00  2.23D+00  1.99D+00  2.16D+00  1.75D+00
                    CP:  2.09D+00  1.57D+00  1.64D+00  1.29D+00  1.69D+00
                    CP:  1.43D+00  1.67D+00  1.29D+00
 E= -381.922476102359     Delta-E=       -0.000000000001 Rises=F Damp=F
 DIIS: error= 1.60D-08 at cycle  19 NSaved=  19.
 NSaved=19 IEnMin=19 EnMin= -381.922476102359     IErMin=19 ErrMin= 1.60D-08
 ErrMax= 1.60D-08  0.00D+00 EMaxC= 1.00D+00 BMatC= 1.35D-13 BMatP= 4.66D-13
 IDIUse=1 WtCom= 1.00D+00 WtEn= 0.00D+00
 Coeff-Com:  0.470D-06 0.278D-05-0.745D-05-0.627D-05-0.539D-05 0.297D-04
 Coeff-Com:  0.430D-05-0.855D-04-0.710D-04 0.509D-03 0.395D-03-0.291D-02
 Coeff-Com: -0.173D-02 0.731D-02 0.395D-01-0.823D-01-0.182D+00 0.483D+00
 Coeff-Com:  0.738D+00
 Coeff:      0.470D-06 0.278D-05-0.745D-05-0.627D-05-0.539D-05 0.297D-04
 Coeff:      0.430D-05-0.855D-04-0.710D-04 0.509D-03 0.395D-03-0.291D-02
 Coeff:     -0.173D-02 0.731D-02 0.395D-01-0.823D-01-0.182D+00 0.483D+00
 Coeff:      0.738D+00
 Gap=     0.284 Goal=     0.100 Shift=    0.000
 Gap=     0.197 Goal=     0.100 Shift=    0.000
 RMSDP=4.86D-09 MaxDP=1.41D-07 DE=-6.82D-13 OVMax= 2.93D-07

 Error on total polarization charges =  0.04502
 SCF Done:  E(UM062X) =  -381.922476102     A.U. after   19 cycles
            NFock= 19  Conv=0.49D-08     -V/T= 2.0084
 <Sx>= 0.0000 <Sy>= 0.0000 <Sz>= 0.5000 <S**2>= 0.7743 S= 0.5121
 <L.S>= 0.000000000000E+00
 KE= 3.787288747602D+02 PE=-1.570940990974D+03 EE= 4.700085055372D+02
 SMD-CDS (non-electrostatic) energy       (kcal/mol) =       4.08
 (included in total energy above)
 Annihilation of the first spin contaminant:
 S**2 before annihilation     0.7743,   after     0.7504
 Leave Link  502 at Wed Apr  9 18:03:05 2025, MaxMem=  8053063680 cpu:            1601.3 elap:              36.8
 (Enter /export/g16/l508.exe)
 QCSCF skips out because SCF is already converged.
 Leave Link  508 at Wed Apr  9 18:03:06 2025, MaxMem=  8053063680 cpu:               5.6 elap:               0.2
 (Enter /export/g16/l601.exe)
 Copying SCF densities to generalized density rwf, IOpCl= 1 IROHF=0.

 **********************************************************************

            Population analysis using the SCF density.

 **********************************************************************

 Orbital symmetries:
 Alpha Orbitals:
       Occupied  (A) (A) (A) (A) (A) (A) (A) (A) (A) (A) (A) (A)
                 (A) (A) (A) (A) (A) (A) (A) (A) (A) (A) (A) (A)
                 (A) (A) (A) (A) (A)
       Virtual   (A) (A) (A) (A) (A) (A) (A) (A) (A) (A) (A) (A)
                 (A) (A) (A) (A) (A) (A) (A) (A) (A) (A) (A) (A)
                 (A) (A) (A) (A) (A) (A) (A) (A) (A) (A) (A) (A)
                 (A) (A) (A) (A) (A) (A) (A) (A) (A) (A) (A) (A)
                 (A) (A) (A) (A) (A) (A) (A) (A) (A) (A) (A) (A)
                 (A) (A) (A) (A) (A) (A) (A) (A) (A) (A) (A) (A)
                 (A) (A) (A) (A) (A) (A) (A) (A) (A) (A) (A) (A)
                 (A) (A) (A) (A) (A) (A) (A) (A) (A) (A) (A) (A)
                 (A) (A) (A) (A) (A) (A) (A) (A) (A) (A) (A) (A)
                 (A) (A) (A) (A) (A) (A) (A) (A) (A) (A) (A) (A)
                 (A) (A) (A) (A) (A) (A) (A) (A) (A) (A) (A) (A)
                 (A)
 Beta  Orbitals:
       Occupied  (A) (A) (A) (A) (A) (A) (A) (A) (A) (A) (A) (A)
                 (A) (A) (A) (A) (A) (A) (A) (A) (A) (A) (A) (A)
                 (A) (A) (A) (A)
       Virtual   (A) (A) (A) (A) (A) (A) (A) (A) (A) (A) (A) (A)
                 (A) (A) (A) (A) (A) (A) (A) (A) (A) (A) (A) (A)
                 (A) (A) (A) (A) (A) (A) (A) (A) (A) (A) (A) (A)
                 (A) (A) (A) (A) (A) (A) (A) (A) (A) (A) (A) (A)
                 (A) (A) (A) (A) (A) (A) (A) (A) (A) (A) (A) (A)
                 (A) (A) (A) (A) (A) (A) (A) (A) (A) (A) (A) (A)
                 (A) (A) (A) (A) (A) (A) (A) (A) (A) (A) (A) (A)
                 (A) (A) (A) (A) (A) (A) (A) (A) (A) (A) (A) (A)
                 (A) (A) (A) (A) (A) (A) (A) (A) (A) (A) (A) (A)
                 (A) (A) (A) (A) (A) (A) (A) (A) (A) (A) (A) (A)
                 (A) (A) (A) (A) (A) (A) (A) (A) (A) (A) (A) (A)
                 (A) (A)
 The electronic state is 2-A.
 Alpha  occ. eigenvalues --  -19.70345 -19.65596 -10.64542 -10.63899 -10.58293
 Alpha  occ. eigenvalues --  -10.56905 -10.56757 -10.56476  -1.22674  -1.16671
 Alpha  occ. eigenvalues --   -0.96853  -0.86389  -0.83293  -0.71499  -0.70908
 Alpha  occ. eigenvalues --   -0.64001  -0.59288  -0.56525  -0.54290  -0.53241
 Alpha  occ. eigenvalues --   -0.51200  -0.49156  -0.47814  -0.45633  -0.43222
 Alpha  occ. eigenvalues --   -0.42092  -0.35909  -0.31773  -0.27093
 Alpha virt. eigenvalues --    0.01318   0.02196   0.02386   0.03621   0.04207
 Alpha virt. eigenvalues --    0.05833   0.06062   0.07292   0.08820   0.09620
 Alpha virt. eigenvalues --    0.09732   0.09933   0.10948   0.13372   0.14515
 Alpha virt. eigenvalues --    0.14695   0.14936   0.16056   0.16135   0.16220
 Alpha virt. eigenvalues --    0.18382   0.19448   0.20347   0.21322   0.21736
 Alpha virt. eigenvalues --    0.22527   0.24589   0.25257   0.25371   0.25556
 Alpha virt. eigenvalues --    0.28021   0.28216   0.29455   0.30350   0.30522
 Alpha virt. eigenvalues --    0.31996   0.34585   0.34631   0.35485   0.35971
 Alpha virt. eigenvalues --    0.39117   0.41177   0.42971   0.44037   0.45838
 Alpha virt. eigenvalues --    0.49996   0.62282   0.65641   0.66903   0.67851
 Alpha virt. eigenvalues --    0.71427   0.73946   0.74899   0.75984   0.78161
 Alpha virt. eigenvalues --    0.78772   0.81050   0.83529   0.86279   0.89971
 Alpha virt. eigenvalues --    0.94568   0.96669   1.00261   1.00663   1.04749
 Alpha virt. eigenvalues --    1.07931   1.08664   1.09259   1.12295   1.15593
 Alpha virt. eigenvalues --    1.16472   1.21305   1.21914   1.22653   1.25868
 Alpha virt. eigenvalues --    1.30683   1.31386   1.31818   1.37411   1.38896
 Alpha virt. eigenvalues --    1.39555   1.40346   1.46065   1.47159   1.47661
 Alpha virt. eigenvalues --    1.50428   1.52713   1.53413   1.65664   1.74120
 Alpha virt. eigenvalues --    1.74801   1.79955   1.82826   1.85325   1.90752
 Alpha virt. eigenvalues --    1.92813   1.95672   1.99812   2.02940   2.06232
 Alpha virt. eigenvalues --    2.08035   2.10071   2.11146   2.15620   2.17032
 Alpha virt. eigenvalues --    2.24314   2.29608   2.32011   2.32330   2.35534
 Alpha virt. eigenvalues --    2.44603   2.53716   2.59007   2.62024   2.62682
 Alpha virt. eigenvalues --    2.65958   2.71132   2.75364   2.83484   2.85420
 Alpha virt. eigenvalues --    2.88408   3.06239   3.18321   3.21941   3.41077
 Alpha virt. eigenvalues --    4.09577   4.24111   4.25407   4.29969   4.37851
 Alpha virt. eigenvalues --    4.43688   4.57452   5.05157
  Beta  occ. eigenvalues --  -19.70109 -19.64937 -10.64345 -10.63899 -10.58101
  Beta  occ. eigenvalues --  -10.56930 -10.56681 -10.56576  -1.21885  -1.15031
  Beta  occ. eigenvalues --   -0.96212  -0.86136  -0.82097  -0.70984  -0.70512
  Beta  occ. eigenvalues --   -0.63451  -0.58906  -0.55924  -0.52671  -0.51494
  Beta  occ. eigenvalues --   -0.50776  -0.48738  -0.45345  -0.44273  -0.42827
  Beta  occ. eigenvalues --   -0.38743  -0.34914  -0.30646
  Beta virt. eigenvalues --   -0.10951   0.02364   0.03167   0.03578   0.04291
  Beta virt. eigenvalues --    0.05043   0.05903   0.06114   0.06878   0.08804
  Beta virt. eigenvalues --    0.09266   0.09706   0.09840   0.10991   0.13583
  Beta virt. eigenvalues --    0.14640   0.14782   0.14886   0.15658   0.15922
  Beta virt. eigenvalues --    0.16604   0.18592   0.19480   0.20575   0.21187
  Beta virt. eigenvalues --    0.22303   0.22776   0.24668   0.25314   0.25569
  Beta virt. eigenvalues --    0.25606   0.28276   0.28655   0.29470   0.30354
  Beta virt. eigenvalues --    0.30821   0.32193   0.34746   0.34770   0.35634
  Beta virt. eigenvalues --    0.36402   0.39186   0.41564   0.43425   0.44321
  Beta virt. eigenvalues --    0.46069   0.50502   0.62991   0.65905   0.68018
  Beta virt. eigenvalues --    0.68650   0.72076   0.75067   0.75377   0.76467
  Beta virt. eigenvalues --    0.78563   0.79443   0.81408   0.83946   0.86666
  Beta virt. eigenvalues --    0.90366   0.94787   0.96950   1.00696   1.00937
  Beta virt. eigenvalues --    1.05204   1.08629   1.09269   1.10247   1.12589
  Beta virt. eigenvalues --    1.15785   1.16655   1.21672   1.22390   1.24341
  Beta virt. eigenvalues --    1.27368   1.30896   1.31699   1.34417   1.37839
  Beta virt. eigenvalues --    1.39239   1.40753   1.40904   1.46456   1.48418
  Beta virt. eigenvalues --    1.48878   1.51871   1.53455   1.53713   1.66085
  Beta virt. eigenvalues --    1.74609   1.75278   1.80387   1.84088   1.86109
  Beta virt. eigenvalues --    1.91221   1.93803   1.96683   2.00532   2.03838
  Beta virt. eigenvalues --    2.06967   2.09041   2.11030   2.11876   2.16487
  Beta virt. eigenvalues --    2.17933   2.25329   2.31120   2.33024   2.33057
  Beta virt. eigenvalues --    2.36532   2.46028   2.54129   2.60016   2.62711
  Beta virt. eigenvalues --    2.64002   2.67346   2.72616   2.76677   2.84313
  Beta virt. eigenvalues --    2.87118   2.89010   3.06807   3.19007   3.24195
  Beta virt. eigenvalues --    3.42450   4.10133   4.25129   4.26209   4.30634
  Beta virt. eigenvalues --    4.39050   4.44765   4.58206   5.05994
          Condensed to atoms (all electrons):
               1          2          3          4          5          6
     1  C    5.301104   0.379855   0.513869  -0.190027  -0.181319   0.189696
     2  C    0.379855   6.342154  -0.115515  -0.173307  -0.606888   0.070692
     3  C    0.513869  -0.115515   5.344134   0.839950  -0.328322  -0.398009
     4  C   -0.190027  -0.173307   0.839950   7.928955  -0.243724  -2.035290
     5  C   -0.181319  -0.606888  -0.328322  -0.243724   7.552950  -0.689666
     6  C    0.189696   0.070692  -0.398009  -2.035290  -0.689666   8.424544
     7  H   -0.005445   0.000858   0.005748   0.134803   0.052082  -0.199250
     8  O   -0.002699  -0.089005  -0.022433  -0.024944  -0.244104   0.440854
     9  H    0.323879  -0.018589   0.006664   0.011318  -0.012045   0.005404
    10  H    0.000506   0.355105   0.014239  -0.012772   0.011844  -0.054752
    11  H    0.011261  -0.014790  -0.003078   0.367193  -0.056262   0.008870
    12  O   -0.013402  -0.007866   0.020242  -0.280760   0.385778  -0.085659
    13  H    0.006297   0.012577   0.332884  -0.025994   0.004919  -0.014851
               7          8          9         10         11         12
     1  C   -0.005445  -0.002699   0.323879   0.000506   0.011261  -0.013402
     2  C    0.000858  -0.089005  -0.018589   0.355105  -0.014790  -0.007866
     3  C    0.005748  -0.022433   0.006664   0.014239  -0.003078   0.020242
     4  C    0.134803  -0.024944   0.011318  -0.012772   0.367193  -0.280760
     5  C    0.052082  -0.244104  -0.012045   0.011844  -0.056262   0.385778
     6  C   -0.199250   0.440854   0.005404  -0.054752   0.008870  -0.085659
     7  H    0.251886   0.047552   0.000000  -0.000009  -0.000025   0.153793
     8  O    0.047552   8.594991  -0.000617  -0.001720  -0.000599  -0.025741
     9  H    0.000000  -0.000617   0.426345  -0.002740  -0.000091   0.000081
    10  H   -0.000009  -0.001720  -0.002740   0.423660   0.000008  -0.000386
    11  H   -0.000025  -0.000599  -0.000091   0.000008   0.417538  -0.000872
    12  O    0.153793  -0.025741   0.000081  -0.000386  -0.000872   8.532498
    13  H    0.000003   0.000103  -0.003000  -0.000101  -0.002778  -0.000587
              13
     1  C    0.006297
     2  C    0.012577
     3  C    0.332884
     4  C   -0.025994
     5  C    0.004919
     6  C   -0.014851
     7  H    0.000003
     8  O    0.000103
     9  H   -0.003000
    10  H   -0.000101
    11  H   -0.002778
    12  O   -0.000587
    13  H    0.421462
          Atomic-Atomic Spin Densities.
               1          2          3          4          5          6
     1  C   -0.053059  -0.044819   0.048787   0.005892  -0.013345  -0.009049
     2  C   -0.044819   0.193478  -0.023128  -0.013221   0.004959   0.062690
     3  C    0.048787  -0.023128   0.380441  -0.012931  -0.030010  -0.002840
     4  C    0.005892  -0.013221  -0.012931  -0.166755   0.037574  -0.013402
     5  C   -0.013345   0.004959  -0.030010   0.037574   0.439404   0.005759
     6  C   -0.009049   0.062690  -0.002840  -0.013402   0.005759   0.074707
     7  H    0.000153  -0.000470   0.000061  -0.000152   0.001034   0.000078
     8  O    0.000961  -0.019187   0.001298  -0.002732  -0.023312  -0.093247
     9  H   -0.001758   0.000855   0.001405  -0.000990   0.000759  -0.000556
    10  H   -0.000016  -0.000757   0.000603  -0.000206   0.000391  -0.001008
    11  H    0.000468  -0.000330  -0.001060   0.002351  -0.001144   0.000440
    12  O   -0.000228  -0.000583   0.003762  -0.002237  -0.101177   0.002069
    13  H    0.002948  -0.001178  -0.005210   0.001485  -0.001541   0.000628
               7          8          9         10         11         12
     1  C    0.000153   0.000961  -0.001758  -0.000016   0.000468  -0.000228
     2  C   -0.000470  -0.019187   0.000855  -0.000757  -0.000330  -0.000583
     3  C    0.000061   0.001298   0.001405   0.000603  -0.001060   0.003762
     4  C   -0.000152  -0.002732  -0.000990  -0.000206   0.002351  -0.002237
     5  C    0.001034  -0.023312   0.000759   0.000391  -0.001144  -0.101177
     6  C    0.000078  -0.093247  -0.000556  -0.001008   0.000440   0.002069
     7  H   -0.002540  -0.002274   0.000000   0.000000   0.000003  -0.000176
     8  O   -0.002274   0.440588   0.000006  -0.000111  -0.000009   0.012982
     9  H    0.000000   0.000006   0.000243  -0.000034  -0.000001   0.000000
    10  H    0.000000  -0.000111  -0.000034  -0.006927   0.000000  -0.000007
    11  H    0.000003  -0.000009  -0.000001   0.000000   0.003296   0.000054
    12  O   -0.000176   0.012982   0.000000  -0.000007   0.000054   0.158574
    13  H    0.000000  -0.000001  -0.000058   0.000003  -0.000043   0.000009
              13
     1  C    0.002948
     2  C   -0.001178
     3  C   -0.005210
     4  C    0.001485
     5  C   -0.001541
     6  C    0.000628
     7  H    0.000000
     8  O   -0.000001
     9  H   -0.000058
    10  H    0.000003
    11  H   -0.000043
    12  O    0.000009
    13  H   -0.013300
 Mulliken charges and spin densities:
               1          2
     1  C   -0.333575  -0.063067
     2  C   -0.135280   0.158309
     3  C   -0.210372   0.361178
     4  C   -0.295399  -0.165324
     5  C    0.354758   0.319351
     6  C    0.337418   0.026268
     7  H    0.558006  -0.004285
     8  O   -0.671637   0.314961
     9  H    0.263393  -0.000129
    10  H    0.267118  -0.008069
    11  H    0.273625   0.004025
    12  O   -0.677120   0.073041
    13  H    0.269066  -0.016260
 Sum of Mulliken charges =   0.00000   1.00000
 Mulliken charges and spin densities with hydrogens summed into heavy atoms:
               1          2
     1  C   -0.070183  -0.063196
     2  C    0.131839   0.150241
     3  C    0.058693   0.344918
     4  C   -0.021775  -0.161299
     5  C    0.354758   0.319351
     6  C    0.337418   0.026268
     8  O   -0.671637   0.314961
    12  O   -0.119114   0.068756
 Electronic spatial extent (au):  <R**2>=            818.0304
 Charge=              0.0000 electrons
 Dipole moment (field-independent basis, Debye):
    X=              4.2233    Y=             -1.9659    Z=              0.0001  Tot=              4.6585
 Quadrupole moment (field-independent basis, Debye-Ang):
   XX=            -40.8936   YY=            -47.5121   ZZ=            -48.6346
   XY=              2.7737   XZ=             -0.0001   YZ=              0.0002
 Traceless Quadrupole moment (field-independent basis, Debye-Ang):
   XX=              4.7865   YY=             -1.8320   ZZ=             -2.9545
   XY=              2.7737   XZ=             -0.0001   YZ=              0.0002
 Octapole moment (field-independent basis, Debye-Ang**2):
  XXX=              4.3005  YYY=             -8.1515  ZZZ=              0.0001  XYY=             19.9497
  XXY=             -7.7418  XXZ=              0.0006  XZZ=             -7.3861  YZZ=              0.2325
  YYZ=              0.0001  XYZ=             -0.0001
 Hexadecapole moment (field-independent basis, Debye-Ang**3):
 XXXX=           -493.2445 YYYY=           -401.1041 ZZZZ=            -53.2240 XXXY=             12.6307
 XXXZ=             -0.0011 YYYX=              9.7752 YYYZ=              0.0009 ZZZX=             -0.0002
 ZZZY=             -0.0001 XXYY=           -184.4385 XXZZ=           -114.6991 YYZZ=            -85.9336
 XXYZ=              0.0005 YYXZ=              0.0000 ZZXY=             -0.1182
 N-N= 3.402811345746D+02 E-N=-1.570940990977D+03  KE= 3.787288747602D+02
                          Isotropic Fermi Contact Couplings
        Atom                 a.u.       MegaHertz       Gauss      10(-4) cm-1
     1  C(13)             -0.01407     -15.81553      -5.64338      -5.27549
     2  C(13)              0.01801      20.24738       7.22477       6.75380
     3  C(13)              0.05622      63.20450      22.55294      21.08275
     4  C(13)             -0.03184     -35.79947     -12.77414     -11.94142
     5  C(13)              0.05013      56.35297      20.10814      18.79733
     6  C(13)             -0.00872      -9.80305      -3.49797      -3.26994
     7  H(1)              -0.00145      -6.49859      -2.31886      -2.16770
     8  O(17)              0.07695     -46.64849     -16.64534     -15.56026
     9  H(1)              -0.00009      -0.41218      -0.14708      -0.13749
    10  H(1)              -0.00270     -12.04864      -4.29925      -4.01899
    11  H(1)               0.00106       4.72522       1.68608       1.57616
    12  O(17)              0.02399     -14.54151      -5.18877      -4.85053
    13  H(1)              -0.00512     -22.88066      -8.16439      -7.63217
 --------------------------------------------------------
       Center         ----  Spin Dipole Couplings  ----
                      3XX-RR        3YY-RR        3ZZ-RR
 --------------------------------------------------------
     1   Atom        0.005236      0.007301     -0.012537
     2   Atom       -0.064712     -0.061869      0.126581
     3   Atom       -0.147311     -0.150847      0.298157
     4   Atom        0.053435      0.047009     -0.100444
     5   Atom       -0.152606     -0.147988      0.300594
     6   Atom       -0.021534     -0.033324      0.054857
     7   Atom        0.004783      0.007700     -0.012483
     8   Atom       -0.622682     -0.605101      1.227783
     9   Atom        0.000652      0.003827     -0.004479
    10   Atom       -0.006708      0.012276     -0.005568
    11   Atom        0.005857     -0.000842     -0.005014
    12   Atom       -0.230115     -0.212165      0.442279
    13   Atom        0.008478     -0.004149     -0.004329
 --------------------------------------------------------
                        XY            XZ            YZ
 --------------------------------------------------------
     1   Atom        0.000117      0.000000      0.000000
     2   Atom        0.005568     -0.000001     -0.000001
     3   Atom       -0.007060     -0.000002     -0.000005
     4   Atom       -0.004010     -0.000001      0.000001
     5   Atom        0.003229      0.000006      0.000004
     6   Atom       -0.014065     -0.000002     -0.000002
     7   Atom       -0.009939      0.000000      0.000000
     8   Atom        0.018824     -0.000027     -0.000004
     9   Atom        0.004915      0.000000      0.000000
    10   Atom        0.007822      0.000000      0.000000
    11   Atom       -0.002792      0.000000      0.000000
    12   Atom       -0.012826      0.000018      0.000003
    13   Atom       -0.023693      0.000000      0.000000
 --------------------------------------------------------


 ---------------------------------------------------------------------------------
              Anisotropic Spin Dipole Couplings in Principal Axis System
 ---------------------------------------------------------------------------------

       Atom             a.u.   MegaHertz   Gauss  10(-4) cm-1        Axes

              Baa    -0.0125    -1.682    -0.600    -0.561  0.0000  0.0000  1.0000
     1 C(13)  Bbb     0.0052     0.702     0.250     0.234  0.9984 -0.0563  0.0000
              Bcc     0.0073     0.981     0.350     0.327  0.0563  0.9984  0.0000
 
              Baa    -0.0690    -9.264    -3.306    -3.090  0.7897 -0.6134  0.0000
     2 C(13)  Bbb    -0.0575    -7.722    -2.755    -2.576  0.6134  0.7897  0.0000
              Bcc     0.1266    16.986     6.061     5.666  0.0000  0.0000  1.0000
 
              Baa    -0.1564   -20.982    -7.487    -6.999  0.6153  0.7883  0.0000
     3 C(13)  Bbb    -0.1418   -19.028    -6.790    -6.347  0.7883 -0.6153  0.0000
              Bcc     0.2982    40.010    14.277    13.346  0.0000  0.0000  1.0000
 
              Baa    -0.1004   -13.479    -4.810    -4.496  0.0000  0.0000  1.0000
     4 C(13)  Bbb     0.0451     6.050     2.159     2.018  0.4328  0.9015  0.0000
              Bcc     0.0554     7.429     2.651     2.478  0.9015 -0.4328  0.0000
 
              Baa    -0.1543   -20.701    -7.387    -6.905  0.8893 -0.4573  0.0000
     5 C(13)  Bbb    -0.1463   -19.636    -7.007    -6.550  0.4573  0.8893  0.0000
              Bcc     0.3006    40.337    14.393    13.455  0.0000  0.0000  1.0000
 
              Baa    -0.0427    -5.727    -2.044    -1.910  0.5538  0.8326  0.0000
     6 C(13)  Bbb    -0.0122    -1.634    -0.583    -0.545  0.8326 -0.5538  0.0000
              Bcc     0.0549     7.361     2.627     2.455  0.0000  0.0000  1.0000
 
              Baa    -0.0125    -6.660    -2.377    -2.222  0.0000  0.0000  1.0000
     7 H(1)   Bbb    -0.0038    -2.030    -0.724    -0.677  0.7567  0.6538  0.0000
              Bcc     0.0163     8.690     3.101     2.899 -0.6538  0.7567  0.0000
 
              Baa    -0.6347    45.924    16.387    15.319  0.8435 -0.5371  0.0000
     8 O(17)  Bbb    -0.5931    42.917    15.314    14.316  0.5371  0.8435  0.0000
              Bcc     1.2278   -88.842   -31.701   -29.634  0.0000  0.0000  1.0000
 
              Baa    -0.0045    -2.390    -0.853    -0.797  0.0000  0.0000  1.0000
     9 H(1)   Bbb    -0.0029    -1.561    -0.557    -0.521  0.8085 -0.5885  0.0000
              Bcc     0.0074     3.951     1.410     1.318  0.5885  0.8085  0.0000
 
              Baa    -0.0095    -5.077    -1.812    -1.693  0.9412 -0.3378  0.0000
    10 H(1)   Bbb    -0.0056    -2.971    -1.060    -0.991  0.0000  0.0000  1.0000
              Bcc     0.0151     8.048     2.872     2.684  0.3378  0.9412  0.0000
 
              Baa    -0.0050    -2.675    -0.955    -0.892  0.0000  0.0000  1.0000
    11 H(1)   Bbb    -0.0019    -0.989    -0.353    -0.330  0.3405  0.9402  0.0000
              Bcc     0.0069     3.664     1.308     1.222  0.9402 -0.3405  0.0000
 
              Baa    -0.2368    17.134     6.114     5.715  0.8869  0.4619  0.0000
    12 O(17)  Bbb    -0.2055    14.869     5.306     4.960 -0.4619  0.8869  0.0000
              Bcc     0.4423   -32.003   -11.419   -10.675  0.0000  0.0000  1.0000
 
              Baa    -0.0224   -11.927    -4.256    -3.979  0.6093  0.7929  0.0000
    13 H(1)   Bbb    -0.0043    -2.310    -0.824    -0.771  0.0000  0.0000  1.0000
              Bcc     0.0267    14.237     5.080     4.749  0.7929 -0.6093  0.0000
 

 ---------------------------------------------------------------------------------

 No NMR shielding tensors so no spin-rotation constants.
 Leave Link  601 at Wed Apr  9 18:03:06 2025, MaxMem=  8053063680 cpu:              26.9 elap:               0.7
 (Enter /export/g16/l701.exe)
 ... and contract with generalized density number  0.
 Compute integral first derivatives.
 D1PCM: PCM CHGder 1st derivatives, ID1Alg=3 FixD1E=F DoIter=F DoCFld=F I1PDM=0.
 GePol: Maximum number of non-zero 1st derivatives   =     189
 Leave Link  701 at Wed Apr  9 18:03:08 2025, MaxMem=  8053063680 cpu:              66.4 elap:               1.6
 (Enter /export/g16/l702.exe)
 L702 exits ... SP integral derivatives will be done elsewhere.
 Leave Link  702 at Wed Apr  9 18:03:08 2025, MaxMem=  8053063680 cpu:               4.4 elap:               0.1
 (Enter /export/g16/l703.exe)
 Integral derivatives from FoFJK, PRISM(SPDF).
 Compute integral first derivatives, UseDBF=F ICtDFT=           0.
 Calling FoFJK, ICntrl=      2127 FMM=F ISym2X=0 I1Cent= 0 IOpClX= 1 NMat=1 NMatS=1 NMatT=0.
 FoFJK:  IHMeth= 1 ICntrl=    2127 DoSepK=F KAlg= 0 I1Cent=           0 FoldK=F
 IRaf=         0 NMat=       1 IRICut=       1 DoRegI=T DoRafI=F ISym2E= 0 IDoP0=0 IntGTp=1.
 FoFCou: FMM=F IPFlag=           0 FMFlag=      100000 FMFlg1=         800
         NFxFlg=           0 DoJE=F BraDBF=F KetDBF=F FulRan=T
         wScrn=  0.000000 ICntrl=      2127 IOpCl=  1 I1Cent=           0 NGrid=           0
         NMat0=    1 NMatS0=      1 NMatT0=    0 NMatD0=    1 NMtDS0=    0 NMtDT0=    0
 Symmetry not used in FoFCou.
 Leave Link  703 at Wed Apr  9 18:03:11 2025, MaxMem=  8053063680 cpu:             109.3 elap:               2.5
 (Enter /export/g16/l716.exe)
 Dipole        = 1.66158678D+00-7.73458740D-01 2.21447392D-05
 ***** Axes restored to original set *****
 -------------------------------------------------------------------
 Center     Atomic                   Forces (Hartrees/Bohr)
 Number     Number              X              Y              Z
 -------------------------------------------------------------------
      1        6           0.002613855    0.001275645    0.000000625
      2        6          -0.000794896   -0.002401758    0.000000684
      3        6           0.004725375   -0.001487614   -0.000001135
      4        6          -0.004439711    0.001052279    0.000001715
      5        6           0.000403268   -0.000231232   -0.000002422
      6        6          -0.003229579   -0.000703628   -0.000000321
      7        1           0.004910114    0.002953655    0.000000173
      8        8           0.003488308    0.002788219   -0.000000188
      9        1          -0.002382281    0.001072237   -0.000000104
     10        1          -0.000026470    0.002946100   -0.000000054
     11        1           0.000584401   -0.002711778   -0.000000457
     12        8          -0.003809944   -0.003028336    0.000001234
     13        1          -0.002042439   -0.001523790    0.000000249
 -------------------------------------------------------------------
 Cartesian Forces:  Max     0.004910114 RMS     0.002133481
 Leave Link  716 at Wed Apr  9 18:03:11 2025, MaxMem=  8053063680 cpu:               3.2 elap:               0.1
 (Enter /export/g16/l103.exe)

 GradGradGradGradGradGradGradGradGradGradGradGradGradGradGradGradGradGrad
 Berny optimization.
 FormGI is forming the generalized inverse of G from B-inverse, IUseBI=4.
 Internal  Forces:  Max     0.005422241 RMS     0.001439465
 Search for a local minimum.
 Step number   1 out of a maximum of   68
 All quantities printed in internal units (Hartrees-Bohrs-Radians)
 RMS Force = .14395D-02 SwitMx=.10000D-02 MixMth= 1
 Mixed Optimization -- RFO/linear search
 Second derivative matrix not updated -- first step.
 ITU=  0
     Eigenvalues ---    0.01426   0.01588   0.01890   0.01977   0.02007
     Eigenvalues ---    0.02098   0.02142   0.02235   0.02264   0.02553
     Eigenvalues ---    0.16000   0.16000   0.16000   0.16000   0.16000
     Eigenvalues ---    0.22000   0.22471   0.24465   0.25000   0.25000
     Eigenvalues ---    0.35709   0.35785   0.35787   0.35803   0.35819
     Eigenvalues ---    0.38348   0.41194   0.45206   0.46885   0.50317
     Eigenvalues ---    0.52086   0.58363   0.80820
 RFO step:  Lambda=-3.13452129D-04 EMin= 1.42610748D-02
 Linear search not attempted -- first point.
 Iteration  1 RMS(Cart)=  0.00769756 RMS(Int)=  0.00007525
 Iteration  2 RMS(Cart)=  0.00008594 RMS(Int)=  0.00000048
 Iteration  3 RMS(Cart)=  0.00000001 RMS(Int)=  0.00000048
 ITry= 1 IFail=0 DXMaxC= 3.68D-02 DCOld= 1.00D+10 DXMaxT= 3.00D-01 DXLimC= 3.00D+00 Rises=F
 Variable       Old X    -DE/DX   Delta X   Delta X   Delta X     New X
                                 (Linear)    (Quad)   (Total)
    R1        2.58613  -0.00024   0.00000  -0.00055  -0.00055   2.58557
    R2        2.68635   0.00266   0.00000   0.00611   0.00611   2.69246
    R3        2.04419   0.00261   0.00000   0.00729   0.00729   2.05148
    R4        2.72094   0.00040   0.00000   0.00108   0.00108   2.72202
    R5        2.04415   0.00294   0.00000   0.00822   0.00822   2.05238
    R6        2.62757  -0.00232   0.00000  -0.00498  -0.00498   2.62260
    R7        2.04391   0.00254   0.00000   0.00710   0.00710   2.05101
    R8        2.62175   0.00233   0.00000   0.00497   0.00497   2.62672
    R9        2.04365   0.00275   0.00000   0.00766   0.00766   2.05131
   R10        2.76046   0.00235   0.00000   0.00656   0.00656   2.76702
   R11        2.52260   0.00104   0.00000   0.00178   0.00178   2.52438
   R12        2.37476   0.00443   0.00000   0.00548   0.00548   2.38024
   R13        1.84517   0.00542   0.00000   0.01040   0.01040   1.85557
    A1        2.10667   0.00044   0.00000   0.00148   0.00149   2.10815
    A2        2.09856  -0.00025   0.00000  -0.00091  -0.00091   2.09766
    A3        2.07795  -0.00019   0.00000  -0.00058  -0.00058   2.07737
    A4        2.09773  -0.00027   0.00000  -0.00129  -0.00129   2.09644
    A5        2.13012   0.00032   0.00000   0.00177   0.00177   2.13189
    A6        2.05533  -0.00005   0.00000  -0.00048  -0.00048   2.05485
    A7        2.12141   0.00051   0.00000   0.00185   0.00185   2.12326
    A8        2.07963  -0.00015   0.00000  -0.00030  -0.00030   2.07933
    A9        2.08214  -0.00035   0.00000  -0.00154  -0.00154   2.08060
   A10        2.07265  -0.00058   0.00000  -0.00257  -0.00257   2.07008
   A11        2.11738   0.00064   0.00000   0.00347   0.00347   2.12085
   A12        2.09315  -0.00006   0.00000  -0.00090  -0.00090   2.09225
   A13        2.11968   0.00024   0.00000   0.00144   0.00144   2.12112
   A14        2.12227  -0.00137   0.00000  -0.00570  -0.00570   2.11657
   A15        2.04123   0.00113   0.00000   0.00426   0.00426   2.04550
   A16        2.04822  -0.00034   0.00000  -0.00091  -0.00091   2.04731
   A17        2.17402  -0.00049   0.00000  -0.00219  -0.00218   2.17183
   A18        2.06094   0.00083   0.00000   0.00310   0.00310   2.06404
   A19        1.86619   0.00333   0.00000   0.02076   0.02076   1.88695
    D1        0.00000   0.00000   0.00000   0.00000   0.00000   0.00000
    D2       -3.14159   0.00000   0.00000  -0.00001  -0.00001  -3.14159
    D3        3.14159   0.00000   0.00000   0.00001   0.00001  -3.14159
    D4        0.00000   0.00000   0.00000   0.00000   0.00000   0.00000
    D5       -0.00002   0.00000   0.00000   0.00002   0.00002   0.00000
    D6        3.14159   0.00000   0.00000   0.00000   0.00000   3.14159
    D7        3.14158   0.00000   0.00000   0.00001   0.00001  -3.14159
    D8        0.00001   0.00000   0.00000  -0.00001  -0.00001   0.00000
    D9        0.00002   0.00000   0.00000  -0.00002  -0.00002   0.00000
   D10       -3.14158   0.00000   0.00000   0.00000   0.00000  -3.14159
   D11       -3.14158   0.00000   0.00000  -0.00001  -0.00001  -3.14159
   D12        0.00000   0.00000   0.00000   0.00000   0.00000   0.00001
   D13        0.00002   0.00000   0.00000  -0.00002  -0.00002  -0.00001
   D14       -3.14159   0.00000   0.00000  -0.00001  -0.00001   3.14158
   D15        3.14159   0.00000   0.00000   0.00000   0.00000  -3.14159
   D16       -0.00001   0.00000   0.00000   0.00001   0.00001   0.00000
   D17        0.00000   0.00000   0.00000   0.00001   0.00001   0.00001
   D18       -3.14157   0.00000   0.00000  -0.00003  -0.00003   3.14159
   D19       -3.14158   0.00000   0.00000   0.00000   0.00000  -3.14158
   D20        0.00004   0.00000   0.00000  -0.00004  -0.00004   0.00000
   D21       -0.00002   0.00000   0.00000   0.00001   0.00001   0.00000
   D22        3.14158   0.00000   0.00000   0.00000   0.00000   3.14158
   D23        3.14155   0.00000   0.00000   0.00005   0.00005  -3.14158
   D24       -0.00003   0.00000   0.00000   0.00004   0.00004   0.00000
   D25        3.14157   0.00000   0.00000   0.00003   0.00003  -3.14158
   D26        0.00001   0.00000   0.00000  -0.00001  -0.00001   0.00000
         Item               Value     Threshold  Converged?
 Maximum Force            0.005422     0.000015     NO 
 RMS     Force            0.001439     0.000010     NO 
 Maximum Displacement     0.036758     0.000060     NO 
 RMS     Displacement     0.007745     0.000040     NO 
 Predicted change in Energy=-1.568895D-04
 Lowest energy point so far.  Saving SCF results.
 GradGradGradGradGradGradGradGradGradGradGradGradGradGradGradGradGradGrad

 Leave Link  103 at Wed Apr  9 18:03:11 2025, MaxMem=  8053063680 cpu:               7.7 elap:               0.2
 (Enter /export/g16/l202.exe)
                          Input orientation:                          
 ---------------------------------------------------------------------
 Center     Atomic      Atomic             Coordinates (Angstroms)
 Number     Number       Type             X           Y           Z
 ---------------------------------------------------------------------
      1          6           0       -1.896812    0.591637   -0.000003
      2          6           0       -0.785736    1.390106   -0.000007
      3          6           0       -1.774752   -0.827916    0.000001
      4          6           0       -0.535343   -1.452341    0.000003
      5          6           0        0.608075   -0.661967   -0.000006
      6          6           0        0.528316    0.800105   -0.000010
      7          1           0        2.487161   -0.479385    0.000001
      8          8           0        1.603614    1.456038   -0.000009
      9          1           0       -2.887703    1.035098   -0.000003
     10          1           0       -0.853067    2.474087   -0.000010
     11          1           0       -0.444954   -2.534078    0.000014
     12          8           0        1.827711   -1.206917    0.000001
     13          1           0       -2.674001   -1.435638    0.000009
 ---------------------------------------------------------------------
                    Distance matrix (angstroms):
                    1          2          3          4          5
     1  C    0.000000
     2  C    1.368226   0.000000
     3  C    1.424790   2.428533   0.000000
     4  C    2.455899   2.853454   1.387819   0.000000
     5  C    2.801068   2.480668   2.388599   1.389999   0.000000
     6  C    2.434071   1.440428   2.820385   2.490959   1.464245
     7  H    4.512905   3.769198   4.276141   3.175244   1.887936
     8  O    3.605575   2.390259   4.077965   3.610235   2.340308
     9  H    1.085598   2.131735   2.170133   3.423587   3.885935
    10  H    2.152446   1.086070   3.428225   3.939262   3.459736
    11  H    3.446445   3.938954   2.163181   1.085508   2.147946
    12  O    4.136045   3.684377   3.622345   2.375764   1.335845
    13  H    2.171144   3.398584   1.085346   2.138724   3.372031
                    6          7          8          9         10
     6  C    0.000000
     7  H    2.339694   0.000000
     8  O    1.259569   2.127561   0.000000
     9  H    3.424092   5.584158   4.511000   0.000000
    10  H    2.170354   4.458713   2.659268   2.492074   0.000000
    11  H    3.473331   3.580373   4.485271   4.325047   5.024767
    12  O    2.390934   0.981925   2.672367   5.221279   4.553720
    13  H    3.905557   5.249002   5.163311   2.479960   4.312975
                   11         12         13
    11  H    0.000000
    12  O    2.631799   0.000000
    13  H    2.484999   4.507519   0.000000
 Stoichiometry    C6H5O2(2)
 Framework group  C1[X(C6H5O2)]
 Deg. of freedom    33
 Full point group                 C1      NOp   1
 RotChk:  IX=2 Diff= 8.18D-04
 Largest Abelian subgroup         C1      NOp   1
 Largest concise Abelian subgroup C1      NOp   1
                         Standard orientation:                         
[...]
     21B -> 29B       -0.14654
     23B -> 29B        0.91282
     27B -> 29B       -0.14812
     27B -> 31B        0.17705
     27B -> 34B       -0.14481
 
 Excited State   9:  2.680-A      5.5574 eV  223.10 nm  f=0.0001  <S**2>=1.545
     26A -> 31A        0.10205
     28A -> 30A        0.36934
     28A -> 31A       -0.22782
     29A -> 31A       -0.13446
     24B -> 29B        0.73446
     24B -> 31B        0.10382
     26B -> 29B       -0.10511
     26B -> 31B        0.10709
     26B -> 34B       -0.13334
     28B -> 31B        0.34697
     28B -> 34B       -0.12264
 
 Excited State  10:  2.055-A      5.6296 eV  220.24 nm  f=0.0001  <S**2>=0.805
     29A -> 32A        0.96633
     29A -> 39A       -0.12301
 SavETr:  write IOETrn=   770 NScale= 10 NData=  16 NLR=1 NState=   10 LETran=     190.
 Leave Link  914 at Wed Apr  9 18:15:56 2025, MaxMem=  8053063680 cpu:           10417.1 elap:             237.1
 (Enter /export/g16/l601.exe)
 Copying SCF densities to generalized density rwf, IOpCl= 1 IROHF=0.

 **********************************************************************

            Population analysis using the SCF density.

 **********************************************************************

 Orbital symmetries:
 Alpha Orbitals:
       Occupied  (A) (A) (A) (A) (A) (A) (A) (A) (A) (A) (A) (A)
                 (A) (A) (A) (A) (A) (A) (A) (A) (A) (A) (A) (A)
                 (A) (A) (A) (A) (A)
       Virtual   (A) (A) (A) (A) (A) (A) (A) (A) (A) (A) (A) (A)
                 (A) (A) (A) (A) (A) (A) (A) (A) (A) (A) (A) (A)
                 (A) (A) (A) (A) (A) (A) (A) (A) (A) (A) (A) (A)
                 (A) (A) (A) (A) (A) (A) (A) (A) (A) (A) (A) (A)
                 (A) (A) (A) (A) (A) (A) (A) (A) (A) (A) (A) (A)
                 (A) (A) (A) (A) (A) (A) (A) (A) (A) (A) (A) (A)
                 (A) (A) (A) (A) (A) (A) (A) (A) (A) (A) (A) (A)
                 (A) (A) (A) (A) (A) (A) (A) (A) (A) (A) (A) (A)
                 (A) (A) (A) (A) (A) (A) (A) (A) (A) (A) (A) (A)
                 (A) (A) (A) (A) (A) (A) (A) (A) (A) (A) (A) (A)
                 (A) (A) (A) (A) (A) (A) (A) (A) (A) (A) (A) (A)
                 (A)
 Beta  Orbitals:
       Occupied  (A) (A) (A) (A) (A) (A) (A) (A) (A) (A) (A) (A)
                 (A) (A) (A) (A) (A) (A) (A) (A) (A) (A) (A) (A)
                 (A) (A) (A) (A)
       Virtual   (A) (A) (A) (A) (A) (A) (A) (A) (A) (A) (A) (A)
                 (A) (A) (A) (A) (A) (A) (A) (A) (A) (A) (A) (A)
                 (A) (A) (A) (A) (A) (A) (A) (A) (A) (A) (A) (A)
                 (A) (A) (A) (A) (A) (A) (A) (A) (A) (A) (A) (A)
                 (A) (A) (A) (A) (A) (A) (A) (A) (A) (A) (A) (A)
                 (A) (A) (A) (A) (A) (A) (A) (A) (A) (A) (A) (A)
                 (A) (A) (A) (A) (A) (A) (A) (A) (A) (A) (A) (A)
                 (A) (A) (A) (A) (A) (A) (A) (A) (A) (A) (A) (A)
                 (A) (A) (A) (A) (A) (A) (A) (A) (A) (A) (A) (A)
                 (A) (A) (A) (A) (A) (A) (A) (A) (A) (A) (A) (A)
                 (A) (A) (A) (A) (A) (A) (A) (A) (A) (A) (A) (A)
                 (A) (A)
 The electronic state is 2-A.
 Alpha  occ. eigenvalues --  -19.70454 -19.65553 -10.64668 -10.63930 -10.58291
 Alpha  occ. eigenvalues --  -10.56977 -10.56775 -10.56549  -1.22559  -1.16477
 Alpha  occ. eigenvalues --   -0.96800  -0.86357  -0.83239  -0.71450  -0.70909
 Alpha  occ. eigenvalues --   -0.63926  -0.59166  -0.56474  -0.54242  -0.53127
 Alpha  occ. eigenvalues --   -0.51163  -0.49061  -0.47787  -0.45582  -0.43129
 Alpha  occ. eigenvalues --   -0.42054  -0.35867  -0.31786  -0.27068
 Alpha virt. eigenvalues --    0.01290   0.02165   0.02370   0.03608   0.04204
 Alpha virt. eigenvalues --    0.05827   0.06062   0.07292   0.08811   0.09597
 Alpha virt. eigenvalues --    0.09722   0.09936   0.10941   0.13358   0.14521
 Alpha virt. eigenvalues --    0.14676   0.14910   0.16044   0.16112   0.16226
 Alpha virt. eigenvalues --    0.18303   0.19417   0.20262   0.21318   0.21705
 Alpha virt. eigenvalues --    0.22518   0.24500   0.25179   0.25343   0.25529
 Alpha virt. eigenvalues --    0.27916   0.28183   0.29386   0.30257   0.30443
 Alpha virt. eigenvalues --    0.31837   0.34517   0.34554   0.35476   0.36067
 Alpha virt. eigenvalues --    0.39086   0.41118   0.42808   0.43990   0.45723
 Alpha virt. eigenvalues --    0.49824   0.62183   0.65712   0.66895   0.67769
 Alpha virt. eigenvalues --    0.71282   0.73949   0.74894   0.75775   0.78155
 Alpha virt. eigenvalues --    0.78754   0.81233   0.83542   0.86259   0.90032
 Alpha virt. eigenvalues --    0.94471   0.96532   1.00110   1.00506   1.04671
 Alpha virt. eigenvalues --    1.07845   1.08533   1.09135   1.12028   1.15499
 Alpha virt. eigenvalues --    1.16098   1.21277   1.21934   1.22628   1.25903
 Alpha virt. eigenvalues --    1.30806   1.31350   1.31752   1.37368   1.38826
 Alpha virt. eigenvalues --    1.39534   1.40185   1.46035   1.47177   1.47652
 Alpha virt. eigenvalues --    1.50501   1.52724   1.53774   1.65569   1.74131
 Alpha virt. eigenvalues --    1.74462   1.79850   1.82909   1.85198   1.90481
 Alpha virt. eigenvalues --    1.92586   1.95358   1.99786   2.02725   2.05708
 Alpha virt. eigenvalues --    2.07601   2.10227   2.10916   2.15441   2.17112
 Alpha virt. eigenvalues --    2.24086   2.29722   2.32030   2.32044   2.35500
 Alpha virt. eigenvalues --    2.44310   2.52735   2.58860   2.61591   2.62614
 Alpha virt. eigenvalues --    2.65578   2.70865   2.75049   2.83281   2.85262
 Alpha virt. eigenvalues --    2.88122   3.06103   3.17849   3.21624   3.40564
 Alpha virt. eigenvalues --    4.09322   4.23933   4.25416   4.29684   4.37655
 Alpha virt. eigenvalues --    4.43519   4.57192   5.04350
  Beta  occ. eigenvalues --  -19.70211 -19.64891 -10.64466 -10.63928 -10.58104
  Beta  occ. eigenvalues --  -10.57002 -10.56702 -10.56648  -1.21755  -1.14819
  Beta  occ. eigenvalues --   -0.96163  -0.86107  -0.82046  -0.70933  -0.70511
  Beta  occ. eigenvalues --   -0.63375  -0.58788  -0.55878  -0.52554  -0.51420
  Beta  occ. eigenvalues --   -0.50742  -0.48640  -0.45294  -0.44216  -0.42735
  Beta  occ. eigenvalues --   -0.38719  -0.34867  -0.30656
  Beta virt. eigenvalues --   -0.10911   0.02354   0.03136   0.03566   0.04290
  Beta virt. eigenvalues --    0.05019   0.05898   0.06113   0.06876   0.08794
  Beta virt. eigenvalues --    0.09243   0.09713   0.09835   0.10987   0.13572
  Beta virt. eigenvalues --    0.14645   0.14763   0.14860   0.15664   0.15916
  Beta virt. eigenvalues --    0.16588   0.18518   0.19448   0.20487   0.21187
  Beta virt. eigenvalues --    0.22301   0.22730   0.24584   0.25228   0.25544
  Beta virt. eigenvalues --    0.25586   0.28199   0.28601   0.29405   0.30335
  Beta virt. eigenvalues --    0.30666   0.32024   0.34665   0.34723   0.35616
  Beta virt. eigenvalues --    0.36504   0.39146   0.41518   0.43256   0.44275
  Beta virt. eigenvalues --    0.45968   0.50334   0.62892   0.65974   0.68017
  Beta virt. eigenvalues --    0.68558   0.71942   0.75076   0.75335   0.76248
  Beta virt. eigenvalues --    0.78548   0.79435   0.81583   0.83964   0.86644
  Beta virt. eigenvalues --    0.90424   0.94682   0.96804   1.00513   1.00797
  Beta virt. eigenvalues --    1.05128   1.08528   1.09174   1.10096   1.12319
  Beta virt. eigenvalues --    1.15635   1.16356   1.21628   1.22414   1.24344
  Beta virt. eigenvalues --    1.27402   1.31001   1.31680   1.34366   1.37803
  Beta virt. eigenvalues --    1.39168   1.40589   1.40908   1.46428   1.48437
  Beta virt. eigenvalues --    1.48865   1.51932   1.53442   1.54079   1.65986
  Beta virt. eigenvalues --    1.74631   1.74934   1.80293   1.84171   1.85986
  Beta virt. eigenvalues --    1.90948   1.93572   1.96353   2.00503   2.03621
  Beta virt. eigenvalues --    2.06449   2.08620   2.11192   2.11633   2.16303
  Beta virt. eigenvalues --    2.17998   2.25119   2.31231   2.32743   2.33024
  Beta virt. eigenvalues --    2.36493   2.45755   2.53162   2.59829   2.62298
  Beta virt. eigenvalues --    2.63933   2.66971   2.72362   2.76375   2.84086
  Beta virt. eigenvalues --    2.86949   2.88712   3.06681   3.18561   3.23868
  Beta virt. eigenvalues --    3.41939   4.09879   4.24937   4.26208   4.30366
  Beta virt. eigenvalues --    4.38840   4.44594   4.57941   5.05209
          Condensed to atoms (all electrons):
               1          2          3          4          5          6
     1  C    5.311835   0.385192   0.514052  -0.204359  -0.193735   0.202685
     2  C    0.385192   6.327732  -0.118935  -0.179857  -0.630046   0.113380
     3  C    0.514052  -0.118935   5.359020   0.842983  -0.333743  -0.405880
     4  C   -0.204359  -0.179857   0.842983   7.910098  -0.177737  -2.068095
     5  C   -0.193735  -0.630046  -0.333743  -0.177737   7.597587  -0.765830
     6  C    0.202685   0.113380  -0.405880  -2.068095  -0.765830   8.491647
     7  H   -0.005568  -0.001531   0.005880   0.134599   0.059143  -0.202954
     8  O   -0.003113  -0.094392  -0.022606  -0.020544  -0.239549   0.438577
     9  H    0.321834  -0.017098   0.007925   0.010570  -0.011536   0.004790
    10  H    0.001094   0.354864   0.014286  -0.012984   0.012182  -0.055702
    11  H    0.010621  -0.014183  -0.000994   0.363290  -0.053623   0.007797
    12  O   -0.014158  -0.006060   0.022328  -0.269156   0.386190  -0.097975
    13  H    0.006984   0.012207   0.330384  -0.024161   0.004720  -0.014558
               7          8          9         10         11         12
     1  C   -0.005568  -0.003113   0.321834   0.001094   0.010621  -0.014158
     2  C   -0.001531  -0.094392  -0.017098   0.354864  -0.014183  -0.006060
     3  C    0.005880  -0.022606   0.007925   0.014286  -0.000994   0.022328
     4  C    0.134599  -0.020544   0.010570  -0.012984   0.363290  -0.269156
     5  C    0.059143  -0.239549  -0.011536   0.012182  -0.053623   0.386190
     6  C   -0.202954   0.438577   0.004790  -0.055702   0.007797  -0.097975
     7  H    0.251095   0.045077   0.000000  -0.000008  -0.000023   0.156321
     8  O    0.045077   8.595939  -0.000613  -0.001498  -0.000572  -0.023036
     9  H    0.000000  -0.000613   0.426236  -0.002698  -0.000089   0.000080
    10  H   -0.000008  -0.001498  -0.002698   0.423206   0.000008  -0.000387
    11  H   -0.000023  -0.000572  -0.000089   0.000008   0.416501  -0.000796
    12  O    0.156321  -0.023036   0.000080  -0.000387  -0.000796   8.520717
    13  H    0.000003   0.000101  -0.002971  -0.000098  -0.002714  -0.000593
              13
     1  C    0.006984
     2  C    0.012207
     3  C    0.330384
     4  C   -0.024161
     5  C    0.004720
     6  C   -0.014558
     7  H    0.000003
     8  O    0.000101
     9  H   -0.002971
    10  H   -0.000098
    11  H   -0.002714
    12  O   -0.000593
    13  H    0.421607
          Atomic-Atomic Spin Densities.
               1          2          3          4          5          6
     1  C   -0.047661  -0.043771   0.048883   0.006218  -0.014015  -0.008569
     2  C   -0.043771   0.179930  -0.022313  -0.012530   0.004444   0.062191
     3  C    0.048883  -0.022313   0.369916  -0.013457  -0.030028  -0.002570
     4  C    0.006218  -0.012530  -0.013457  -0.164021   0.037977  -0.013884
     5  C   -0.014015   0.004444  -0.030028   0.037977   0.449375   0.005307
     6  C   -0.008569   0.062191  -0.002570  -0.013884   0.005307   0.076946
     7  H    0.000161  -0.000438   0.000046  -0.000141   0.000958   0.000103
     8  O    0.000915  -0.018749   0.001247  -0.002412  -0.023188  -0.093618
     9  H   -0.001773   0.000892   0.001422  -0.001009   0.000761  -0.000599
    10  H   -0.000054  -0.000706   0.000604  -0.000196   0.000412  -0.000983
    11  H    0.000446  -0.000331  -0.001054   0.002311  -0.001111   0.000466
    12  O   -0.000171  -0.000547   0.003841  -0.002572  -0.103631   0.002330
    13  H    0.002976  -0.001108  -0.004978   0.001225  -0.001476   0.000570
               7          8          9         10         11         12
     1  C    0.000161   0.000915  -0.001773  -0.000054   0.000446  -0.000171
     2  C   -0.000438  -0.018749   0.000892  -0.000706  -0.000331  -0.000547
     3  C    0.000046   0.001247   0.001422   0.000604  -0.001054   0.003841
     4  C   -0.000141  -0.002412  -0.001009  -0.000196   0.002311  -0.002572
     5  C    0.000958  -0.023188   0.000761   0.000412  -0.001111  -0.103631
     6  C    0.000103  -0.093618  -0.000599  -0.000983   0.000466   0.002330
     7  H   -0.002560  -0.002106   0.000000   0.000000   0.000003  -0.000353
     8  O   -0.002106   0.441264   0.000007  -0.000111  -0.000009   0.012715
     9  H    0.000000   0.000007   0.000060  -0.000032  -0.000001   0.000000
    10  H    0.000000  -0.000111  -0.000032  -0.006574   0.000000  -0.000007
    11  H    0.000003  -0.000009  -0.000001   0.000000   0.003182   0.000054
    12  O   -0.000353   0.012715   0.000000  -0.000007   0.000054   0.163583
    13  H    0.000000  -0.000001  -0.000058   0.000002  -0.000040   0.000008
              13
     1  C    0.002976
     2  C   -0.001108
     3  C   -0.004978
     4  C    0.001225
     5  C   -0.001476
     6  C    0.000570
     7  H    0.000000
     8  O   -0.000001
     9  H   -0.000058
    10  H    0.000002
    11  H   -0.000040
    12  O    0.000008
    13  H   -0.013030
 Mulliken charges and spin densities:
               1          2
     1  C   -0.333365  -0.056416
     2  C   -0.131273   0.146964
     3  C   -0.214701   0.351558
     4  C   -0.304646  -0.162492
     5  C    0.345979   0.325785
     6  C    0.352115   0.027691
     7  H    0.557966  -0.004327
     8  O   -0.673772   0.315956
     9  H    0.263569  -0.000330
    10  H    0.267735  -0.007645
    11  H    0.274778   0.003917
    12  O   -0.673475   0.075250
    13  H    0.269090  -0.015910
 Sum of Mulliken charges =   0.00000   1.00000
 Mulliken charges and spin densities with hydrogens summed into heavy atoms:
               1          2
     1  C   -0.069796  -0.056746
     2  C    0.136463   0.139320
     3  C    0.054389   0.335648
     4  C   -0.029869  -0.158575
     5  C    0.345979   0.325785
     6  C    0.352115   0.027691
     8  O   -0.673772   0.315956
    12  O   -0.115510   0.070923
 Electronic spatial extent (au):  <R**2>=            819.8226
 Charge=              0.0000 electrons
 Dipole moment (field-independent basis, Debye):
    X=              4.1439    Y=             -2.0523    Z=             -0.0001  Tot=              4.6243
 Quadrupole moment (field-independent basis, Debye-Ang):
   XX=            -40.6864   YY=            -47.5962   ZZ=            -48.6838
   XY=              3.0047   XZ=              0.0003   YZ=             -0.0001
 Traceless Quadrupole moment (field-independent basis, Debye-Ang):
   XX=              4.9690   YY=             -1.9407   ZZ=             -3.0283
   XY=              3.0047   XZ=              0.0003   YZ=             -0.0001
 Octapole moment (field-independent basis, Debye-Ang**2):
  XXX=              3.3143  YYY=             -8.3455  ZZZ=              0.0002  XYY=             19.9995
  XXY=             -8.3506  XXZ=             -0.0003  XZZ=             -7.4217  YZZ=              0.1691
  YYZ=             -0.0001  XYZ=              0.0003
 Hexadecapole moment (field-independent basis, Debye-Ang**3):
 XXXX=           -490.2364 YYYY=           -404.0251 ZZZZ=            -53.3230 XXXY=             14.5588
 XXXZ=              0.0019 YYYX=             10.1334 YYYZ=             -0.0009 ZZZX=              0.0012
 ZZZY=             -0.0009 XXYY=           -184.9912 XXZZ=           -114.7805 YYZZ=            -86.5014
 XXYZ=             -0.0004 YYXZ=              0.0009 ZZXY=             -0.0334
 N-N= 3.398104124464D+02 E-N=-1.569973570014D+03  KE= 3.786696580351D+02
 Leave Link  601 at Wed Apr  9 18:15:57 2025, MaxMem=  8053063680 cpu:              23.9 elap:               0.6
 (Enter /export/g16/l9999.exe)
 Electronic transition elements 
                 1             2             3             4             5 
      1  -0.381853D+03 -0.381848D+03 -0.381780D+03 -0.381755D+03 -0.381746D+03
      2   0.277120D-04  0.168940D+00  0.569141D+00 -0.279536D+00 -0.983034D+00
      3  -0.919162D-04 -0.484932D+00  0.194657D+00  0.508992D+00 -0.447849D-01
      4  -0.791077D-02  0.377315D-05 -0.147713D-04  0.927827D-05 -0.430043D-05
      5  -0.244544D-05 -0.148504D-01 -0.718095D-01  0.513957D-01  0.175606D+00
      6   0.803622D-05  0.458946D-01 -0.258657D-01 -0.859523D-01  0.453718D-02
      7  -0.198474D-02  0.000000D+00  0.199304D-05 -0.134258D-05  0.000000D+00
      8  -0.459120D+00  0.898352D-04  0.000000D+00 -0.770128D-05 -0.136354D-04
      9  -0.253354D+00  0.468081D-04  0.465018D-05 -0.736017D-05 -0.533298D-05
     10  -0.111099D-03 -0.742872D+00  0.428328D-01  0.472516D+00  0.256611D+00
     11  -0.312222D-05 -0.343807D-01  0.419796D-01  0.353127D-01 -0.148366D+00
     12   0.808512D-05  0.612814D-01 -0.143791D+00 -0.263116D-01  0.114149D-01
     13   0.000000D+00  0.260490D-02  0.773874D-02 -0.281023D-01 -0.400114D-01
     14   0.157054D-04  0.104741D+00 -0.454059D-01  0.911701D-01 -0.354686D-01
     15   0.981518D-02 -0.220505D-05  0.000000D+00  0.000000D+00  0.499613D-05
     16  -0.210289D-01  0.323145D-05  0.275779D-05 -0.509300D-05  0.000000D+00
                 6             7             8             9            10 
      1  -0.381745D+03 -0.381732D+03 -0.381719D+03 -0.381718D+03 -0.381716D+03
      2  -0.528871D-04  0.653966D+00  0.000000D+00 -0.124404D-01  0.613371D-04
      3   0.165790D-04  0.101737D+01 -0.538339D-05 -0.168582D-01  0.101385D-03
      4   0.459420D-02 -0.133909D-05  0.537908D-01 -0.940351D-05 -0.240341D-01
      5   0.945426D-05 -0.125304D+00  0.000000D+00 -0.139323D-02 -0.117535D-04
      6  -0.316601D-05 -0.197215D+00  0.112741D-05  0.398688D-02 -0.206532D-04
      7  -0.956803D-02  0.106727D-05 -0.127372D-01  0.000000D+00 -0.610879D-02
      8   0.271050D+00 -0.107155D-04 -0.274135D+00 -0.342035D-05  0.332710D-01
      9   0.250204D+00 -0.233459D-04  0.127731D+00  0.547196D-04  0.254606D+00
     10   0.262157D-04  0.390974D+00  0.744224D-05 -0.143313D+00  0.574245D-04
     11  -0.109381D-04  0.433222D-02 -0.269472D-05 -0.122774D+00  0.114838D-04
     12  -0.830252D-05 -0.108893D+00 -0.167049D-05  0.500175D-03 -0.105817D-04
     13   0.176885D-05  0.316003D-01  0.659769D-05  0.296659D-02  0.137518D-04
     14  -0.110577D-04 -0.295692D+00  0.379792D-04 -0.459744D+00  0.497801D-04
     15  -0.653189D-01  0.773724D-05 -0.433646D-01 -0.129907D-04 -0.942302D-01
     16   0.613547D-02  0.000000D+00 -0.684465D-01  0.348085D-05  0.201544D-01
 1\1\GINC-C10\SP\UM062X TD-FC\6-31+G(d)\C6H5O2(2)\TALIPOVM\09-Apr-2025\
 0\\#p M062X/6-31+G(d) td(nstates=10) int(grid=ultrafine) scf(xqc,fermi
 ,maxcyc=200) scrf(check) guess(read) geom(allcheck)\\\0,2\C,0,-1.89612
 42256,0.5917101902,-0.0000003312\C,0,-0.7856558598,1.3896917176,-0.000
 00239\C,0,-1.7742552548,-0.8289206923,0.0000091027\C,0,-0.5362520316,-
 1.4519583844,0.0000038568\C,0,0.6083918648,-0.6599017467,0.0000034762\
 C,0,0.5287707462,0.8003138599,0.0000240641\H,0,2.484164726,-0.48038545
 63,0.0000035279\O,0,1.6044911316,1.456564787,-0.0000332296\H,0,-2.8874
 289597,1.0338048749,-0.00000995\H,0,-0.8524636056,2.4734987923,-0.0000
 191365\H,0,-0.4414007806,-2.5330783051,-0.0000006403\O,0,1.8248999541,
 -1.2077617256,-0.0000044888\H,0,-2.6746277049,-1.4347479114,0.00000613
 87\\Version=ES64L-G16RevA.03\State=2-A\HF=-381.9226351\S2=0.774009\S2-
 1=0.\S2A=0.750371\RMSD=4.306e-09\PG=C01 [X(C6H5O2)]\\@


 In the beginning the Universe was created.
 This has made a lot of people very angry
 and been widely regarded as a bad move.
                               -D.Adams
 Job cpu time:       0 days  3 hours  1 minutes 15.7 seconds.
 Elapsed time:       0 days  0 hours  4 minutes  8.9 seconds.
 File lengths (MBytes):  RWF=    290 Int=      0 D2E=      0 Chk=     20 Scr=      1
 Normal termination of Gaussian 16 at Wed Apr  9 18:15:58 2025.
